# OOMMF: rectangular mesh v1.0
# Segment count: 1
# Begin: Segment
# Begin: Header
# Desc: Time (s) :  3.8540541294925135e-09
# Title: m
# meshtype: rectangular
# meshunit: m
# xbase: 2.5e-09
# ybase: 2.5e-09
# zbase: 2.25e-08
# xstepsize: 5e-09
# ystepsize: 5e-09
# zstepsize: 4.5e-08
# xmin: 0
# ymin: 0
# zmin: 0
# xmax: 8e-08
# ymax: 1.6e-07
# zmax: 4.5e-08
# xnodes: 16
# ynodes: 32
# znodes: 1
# ValueRangeMinMag: 1e-08
# ValueRangeMaxMag: 1
# valueunit: 
# valuemultiplier: 1
# End: Header
# Begin: Data Text
0 0 0 
0 0 0 
0 0 0 
0 0 0 
0 0 0 
0 0 0 
0 0 0 
0 0 0 
0 0 0 
0 0 0 
0 0 0 
0 0 0 
0 0 0 
0 0 0 
0 0 0 
0 0 0 
0 0 0 
0 0 0 
0 0 0 
0 0 0 
0 0 0 
0 0 0 
0 0 0 
0 0 0 
0 0 0 
0 0 0 
0 0 0 
0 0 0 
0 0 0 
0 0 0 
0 0 0 
0 0 0 
0 0 0 
0 0 0 
0 0 0 
0 0 0 
0 0 0 
0 0 0 
0 0 0 
0 0 0 
0 0 0 
0 0 0 
0 0 0 
0 0 0 
0 0 0 
0 0 0 
0 0 0 
0 0 0 
0 0 0 
0 0 0 
0 0 0 
0 0 0 
0 0 0 
0 0 0 
0 0 0 
0 0 0 
0 0 0 
0 0 0 
0 0 0 
0 0 0 
0 0 0 
0 0 0 
0 0 0 
0 0 0 
0 0 0 
0 0 0 
0 0 0 
0 0 0 
0 0 0 
0 0 0 
0 0 0 
0 0 0 
0 0 0 
0 0 0 
0 0 0 
0 0 0 
0 0 0 
0 0 0 
0 0 0 
0 0 0 
0 0 0 
0 0 0 
0 0 0 
0 0 0 
0 0 0 
0 0 0 
0 0 0 
0 0 0 
0 0 0 
0 0 0 
0 0 0 
0 0 0 
0 0 0 
0 0 0 
0 0 0 
0 0 0 
0 0 0 
0 0 0 
0 0 0 
0 0 0 
0 0 0 
0 0 0 
0.89996827 0.43580386 0.011489202 
0.9022202 0.43111938 0.011615346 
0.9050537 0.42513674 0.011684087 
0 0 0 
0 0 0 
0 0 0 
0 0 0 
0 0 0 
0 0 0 
0 0 0 
0 0 0 
0 0 0 
0 0 0 
0 0 0 
0 0 0 
0.90583974 0.42347255 0.011198885 
0.9051939 0.42484692 0.011358965 
0.9057754 0.42359892 0.011613942 
0.90802646 0.41875216 0.01160522 
0.9121946 0.4095904 0.011690483 
0 0 0 
0 0 0 
0 0 0 
0 0 0 
0 0 0 
0 0 0 
0 0 0 
0 0 0 
0 0 0 
0 0 0 
0.91525906 0.4027274 0.010559237 
0.90920496 0.41620338 0.011012602 
0.90702736 0.42091727 0.011401097 
0.9066969 0.42162827 0.011420189 
0.90743256 0.42003527 0.011684934 
0.9090396 0.41654542 0.011702862 
0 0 0 
0 0 0 
0 0 0 
0 0 0 
0 0 0 
0 0 0 
0 0 0 
0 0 0 
0 0 0 
0 0 0 
0.9165612 0.39975426 0.010588183 
0.9094907 0.41557455 0.011157781 
0.90684813 0.42130664 0.011282008 
0.9058546 0.42343006 0.011601689 
0.90592915 0.4232711 0.0115828905 
0.90593964 0.4232441 0.011749195 
0 0 0 
0 0 0 
0 0 0 
0 0 0 
0 0 0 
0 0 0 
0 0 0 
0 0 0 
0 0 0 
0 0 0 
0 0 0 
0.907622 0.41963434 0.011373827 
0.9054799 0.42423227 0.01154026 
0.9043517 0.42663166 0.011549505 
0.90410197 0.42715558 0.0117403185 
0.9048844 0.4254971 0.011676138 
0 0 0 
0 0 0 
0 0 0 
0 0 0 
0 0 0 
0 0 0 
0 0 0 
0 0 0 
0 0 0 
0 0 0 
0 0 0 
0.90750545 0.41988394 0.011460253 
0.9047275 0.42583328 0.011577923 
0.9026095 0.43030098 0.011718628 
0.9002849 0.43514287 0.011743297 
0 0 0 
0 0 0 
0 0 0 
0 0 0 
0 0 0 
0 0 0 
0 0 0 
0 0 0 
0 0 0 
0 0 0 
0 0 0 
0 0 0 
0 0 0 
0 0 0 
0 0 0 
0 0 0 
0 0 0 
0 0 0 
0 0 0 
0 0 0 
0 0 0 
0 0 0 
0 0 0 
0 0 0 
0 0 0 
0 0 0 
0 0 0 
0 0 0 
0 0 0 
0 0 0 
0 0 0 
0 0 0 
0 0 0 
0 0 0 
0 0 0 
0 0 0 
0 0 0 
0 0 0 
0 0 0 
0 0 0 
0 0 0 
0 0 0 
0 0 0 
0 0 0 
0 0 0 
0.8888277 0.45808497 0.011980691 
0.89032453 0.45517153 0.011881756 
0.89214766 0.45158276 0.012068684 
0 0 0 
0 0 0 
0 0 0 
0 0 0 
0 0 0 
0 0 0 
0 0 0 
0 0 0 
0 0 0 
0 0 0 
0 0 0 
0 0 0 
0.90120614 0.43323556 0.0115990965 
0.8980897 0.43966246 0.011482633 
0.89781874 0.44019794 0.012134077 
0.8994463 0.43687665 0.011631852 
0.9048183 0.42563373 0.011828915 
0 0 0 
0 0 0 
0 0 0 
0 0 0 
0 0 0 
0 0 0 
0 0 0 
0 0 0 
0 0 0 
0 0 0 
0.91378856 0.4060447 0.010872017 
0.9070345 0.42091188 0.011029667 
0.90346193 0.42850202 0.011943456 
0.9020185 0.43155253 0.011183466 
0.9023807 0.43077204 0.012023771 
0.90462655 0.42604986 0.011500448 
0 0 0 
0 0 0 
0 0 0 
0 0 0 
0 0 0 
0 0 0 
0 0 0 
0 0 0 
0 0 0 
0 0 0 
0.91625476 0.40045252 0.01072208 
0.9101382 0.41414535 0.01150177 
0.9062903 0.42251396 0.010957199 
0.90412486 0.4270996 0.012012419 
0.9039865 0.42741638 0.011114254 
0.9065462 0.4219491 0.011532935 
0.9167129 0.3994052 0.010631472 
0 0 0 
0 0 0 
0 0 0 
0 0 0 
0 0 0 
0 0 0 
0 0 0 
0 0 0 
0 0 0 
0.9189471 0.3942307 0.010885874 
0.9122573 0.40946996 0.010999526 
0.9075371 0.4198069 0.011773715 
0.9041498 0.42707068 0.011126671 
0.90311503 0.4292361 0.0118137235 
0.90257657 0.43038154 0.011288389 
0 0 0 
0 0 0 
0 0 0 
0 0 0 
0 0 0 
0 0 0 
0 0 0 
0 0 0 
0 0 0 
0 0 0 
0 0 0 
0.91190827 0.41023406 0.011466027 
0.90765965 0.41955283 0.011382558 
0.90119183 0.43325886 0.011834396 
0.9007551 0.43417785 0.011402937 
0.8990263 0.43774772 0.01134402 
0 0 0 
0 0 0 
0 0 0 
0 0 0 
0 0 0 
0 0 0 
0 0 0 
0 0 0 
0 0 0 
0 0 0 
0 0 0 
0 0 0 
0 0 0 
0.889583 0.45662114 0.011806328 
0 0 0 
0 0 0 
0 0 0 
0 0 0 
0 0 0 
0 0 0 
0 0 0 
0 0 0 
0 0 0 
0 0 0 
0 0 0 
0 0 0 
0 0 0 
0 0 0 
0 0 0 
0 0 0 
0 0 0 
0 0 0 
0 0 0 
0 0 0 
0 0 0 
0 0 0 
0 0 0 
0 0 0 
0 0 0 
0 0 0 
0 0 0 
0 0 0 
0 0 0 
0 0 0 
0 0 0 
0 0 0 
0 0 0 
0 0 0 
0 0 0 
0 0 0 
0 0 0 
0 0 0 
0 0 0 
0 0 0 
0 0 0 
0 0 0 
0 0 0 
0 0 0 
0 0 0 
0 0 0 
0 0 0 
0 0 0 
0 0 0 
0 0 0 
0 0 0 
0 0 0 
0 0 0 
0 0 0 
0 0 0 
0 0 0 
0 0 0 
0 0 0 
0 0 0 
0 0 0 
0.9031314 0.4293328 0.005196392 
0.9051354 0.42508942 0.0053783297 
0.9077291 0.41952336 0.0052844794 
0.9106254 0.4131983 0.0053534303 
0 0 0 
0 0 0 
0 0 0 
0 0 0 
0 0 0 
0 0 0 
0 0 0 
0 0 0 
0 0 0 
0 0 0 
0 0 0 
0.9120441 0.41006115 0.0050452705 
0.90932757 0.41604656 0.005352801 
0.9093879 0.4159178 0.005114713 
0.91042906 0.41362897 0.005487612 
0.913133 0.40762937 0.0051560677 
0.91844153 0.39552256 0.0052037407 
0 0 0 
0 0 0 
0 0 0 
0 0 0 
0 0 0 
0 0 0 
0 0 0 
0 0 0 
0 0 0 
0 0 0 
0.9156806 0.4018732 0.005198625 
0.9130178 0.40788847 0.0050504324 
0.911759 0.41068846 0.0055237655 
0.91150504 0.41125804 0.0050292825 
0.912796 0.40837982 0.005431513 
0.9162153 0.40065378 0.0051155714 
0 0 0 
0 0 0 
0 0 0 
0 0 0 
0 0 0 
0 0 0 
0 0 0 
0 0 0 
0 0 0 
0 0 0 
0.9193185 0.3934815 0.005097931 
0.9152389 0.4028753 0.0054179677 
0.91270965 0.4085779 0.0050231284 
0.911497 0.4112697 0.0055276 
0.91144246 0.4113965 0.00506144 
0.91329235 0.4072712 0.0052155196 
0 0 0 
0 0 0 
0 0 0 
0 0 0 
0 0 0 
0 0 0 
0 0 0 
0 0 0 
0 0 0 
0 0 0 
0.9221738 0.38674107 0.0051852427 
0.9164173 0.40019113 0.005141054 
0.91253763 0.40895623 0.005479614 
0.90999806 0.41458124 0.0051143044 
0.9085471 0.41774827 0.005361002 
0.91016895 0.41420642 0.005060039 
0 0 0 
0 0 0 
0 0 0 
0 0 0 
0 0 0 
0 0 0 
0 0 0 
0 0 0 
0 0 0 
0 0 0 
0 0 0 
0.9145401 0.4044601 0.0053402083 
0.9105412 0.41338482 0.005275182 
0.90642804 0.42232594 0.0053766365 
0.9032117 0.42916387 0.0051998845 
0 0 0 
0 0 0 
0 0 0 
0 0 0 
0 0 0 
0 0 0 
0 0 0 
0 0 0 
0 0 0 
0 0 0 
0 0 0 
0 0 0 
0 0 0 
0 0 0 
0 0 0 
0 0 0 
0 0 0 
0 0 0 
0 0 0 
0 0 0 
0 0 0 
0 0 0 
0 0 0 
0 0 0 
0 0 0 
0 0 0 
0 0 0 
0 0 0 
0 0 0 
0 0 0 
0 0 0 
0 0 0 
0 0 0 
0 0 0 
0 0 0 
0 0 0 
0 0 0 
0 0 0 
0 0 0 
0 0 0 
# End: Data Text
# End: Segment
