# OOMMF: rectangular mesh v1.0
# Segment count: 1
# Begin: Segment
# Begin: Header
# Desc: Time (s) :  4.030636080989626e-09
# Title: m
# meshtype: rectangular
# meshunit: m
# xbase: 2.5e-09
# ybase: 2.5e-09
# zbase: 2.25e-08
# xstepsize: 5e-09
# ystepsize: 5e-09
# zstepsize: 4.5e-08
# xmin: 0
# ymin: 0
# zmin: 0
# xmax: 8e-08
# ymax: 1.6e-07
# zmax: 4.5e-08
# xnodes: 16
# ynodes: 32
# znodes: 1
# ValueRangeMinMag: 1e-08
# ValueRangeMaxMag: 1
# valueunit: 
# valuemultiplier: 1
# End: Header
# Begin: Data Text
0 0 0 
0 0 0 
0 0 0 
0 0 0 
0 0 0 
0 0 0 
0 0 0 
0 0 0 
0 0 0 
0 0 0 
0 0 0 
0 0 0 
0 0 0 
0 0 0 
0 0 0 
0 0 0 
0 0 0 
0 0 0 
0 0 0 
0 0 0 
0 0 0 
0 0 0 
0 0 0 
0 0 0 
0 0 0 
0 0 0 
0 0 0 
0 0 0 
0 0 0 
0 0 0 
0 0 0 
0 0 0 
0 0 0 
0 0 0 
0 0 0 
0 0 0 
0 0 0 
0 0 0 
0 0 0 
0 0 0 
0 0 0 
0 0 0 
0 0 0 
0 0 0 
0 0 0 
0 0 0 
0 0 0 
0 0 0 
0 0 0 
0 0 0 
0 0 0 
0 0 0 
0 0 0 
0 0 0 
0 0 0 
0 0 0 
0 0 0 
0 0 0 
0 0 0 
0 0 0 
0 0 0 
0 0 0 
0 0 0 
0 0 0 
0 0 0 
0 0 0 
0 0 0 
0 0 0 
0 0 0 
0 0 0 
0 0 0 
0 0 0 
0 0 0 
0 0 0 
0 0 0 
0 0 0 
0 0 0 
0 0 0 
0 0 0 
0 0 0 
0 0 0 
0 0 0 
0 0 0 
0 0 0 
0 0 0 
0 0 0 
0 0 0 
0 0 0 
0 0 0 
0 0 0 
0 0 0 
0 0 0 
0 0 0 
0 0 0 
0 0 0 
0 0 0 
0 0 0 
0 0 0 
0 0 0 
0 0 0 
0 0 0 
0 0 0 
0.89997894 0.43578175 0.011500209 
0.9022306 0.43109697 0.011630264 
0.90506494 0.42511258 0.011695622 
0 0 0 
0 0 0 
0 0 0 
0 0 0 
0 0 0 
0 0 0 
0 0 0 
0 0 0 
0 0 0 
0 0 0 
0 0 0 
0 0 0 
0.90584993 0.4234504 0.011210032 
0.90520346 0.42482632 0.011376938 
0.905787 0.423574 0.011620343 
0.9080365 0.41872975 0.011622467 
0.9122054 0.40956637 0.011701244 
0 0 0 
0 0 0 
0 0 0 
0 0 0 
0 0 0 
0 0 0 
0 0 0 
0 0 0 
0 0 0 
0 0 0 
0.9152682 0.4027062 0.010570728 
0.9092137 0.41618353 0.011029952 
0.90703833 0.42089355 0.011405572 
0.9067058 0.42160842 0.011441429 
0.9074437 0.42001104 0.011689929 
0.9090497 0.4165232 0.011717207 
0 0 0 
0 0 0 
0 0 0 
0 0 0 
0 0 0 
0 0 0 
0 0 0 
0 0 0 
0 0 0 
0 0 0 
0.9165695 0.39973488 0.010601289 
0.90950084 0.41555226 0.011165206 
0.9068569 0.42128724 0.0113025615 
0.9058659 0.42340583 0.011603947 
0.90593845 0.4232504 0.011601661 
0.9059501 0.42322102 0.011757997 
0 0 0 
0 0 0 
0 0 0 
0 0 0 
0 0 0 
0 0 0 
0 0 0 
0 0 0 
0 0 0 
0 0 0 
0 0 0 
0.9076315 0.4196133 0.011390058 
0.90549105 0.4242082 0.01154736 
0.90436107 0.42661136 0.011567501 
0.90411305 0.42713192 0.011746756 
0.90489435 0.42547563 0.011689074 
0 0 0 
0 0 0 
0 0 0 
0 0 0 
0 0 0 
0 0 0 
0 0 0 
0 0 0 
0 0 0 
0 0 0 
0 0 0 
0.9075164 0.41986004 0.011472033 
0.9047377 0.4258114 0.011591751 
0.9026207 0.43027732 0.011728102 
0.9002952 0.43512106 0.011755396 
0 0 0 
0 0 0 
0 0 0 
0 0 0 
0 0 0 
0 0 0 
0 0 0 
0 0 0 
0 0 0 
0 0 0 
0 0 0 
0 0 0 
0 0 0 
0 0 0 
0 0 0 
0 0 0 
0 0 0 
0 0 0 
0 0 0 
0 0 0 
0 0 0 
0 0 0 
0 0 0 
0 0 0 
0 0 0 
0 0 0 
0 0 0 
0 0 0 
0 0 0 
0 0 0 
0 0 0 
0 0 0 
0 0 0 
0 0 0 
0 0 0 
0 0 0 
0 0 0 
0 0 0 
0 0 0 
0 0 0 
0 0 0 
0 0 0 
0 0 0 
0 0 0 
0 0 0 
0.88879794 0.4581441 0.011925528 
0.890366 0.4550877 0.011979731 
0.8921207 0.45163736 0.012019211 
0 0 0 
0 0 0 
0 0 0 
0 0 0 
0 0 0 
0 0 0 
0 0 0 
0 0 0 
0 0 0 
0 0 0 
0 0 0 
0 0 0 
0.90116614 0.43332094 0.011516948 
0.89819777 0.4394351 0.011732782 
0.89768916 0.4404697 0.011854229 
0.8995423 0.4366728 0.0118548265 
0.90478915 0.42569724 0.011770923 
0 0 0 
0 0 0 
0 0 0 
0 0 0 
0 0 0 
0 0 0 
0 0 0 
0 0 0 
0 0 0 
0 0 0 
0.9137623 0.4061054 0.010817607 
0.9071378 0.42068243 0.011279389 
0.9032886 0.42887795 0.011556455 
0.90220904 0.43114245 0.011625467 
0.90223086 0.4310949 0.011691064 
0.9046837 0.42592502 0.011640459 
0 0 0 
0 0 0 
0 0 0 
0 0 0 
0 0 0 
0 0 0 
0 0 0 
0 0 0 
0 0 0 
0 0 0 
0.91629165 0.40036553 0.010819953 
0.9100164 0.4144203 0.011221736 
0.9064767 0.42210215 0.011399038 
0.9039178 0.42755038 0.011547063 
0.9041494 0.42706156 0.01149761 
0.906463 0.4221328 0.011348182 
0.91672456 0.3993773 0.0106688235 
0 0 0 
0 0 0 
0 0 0 
0 0 0 
0 0 0 
0 0 0 
0 0 0 
0 0 0 
0 0 0 
0.91892326 0.3942876 0.010836108 
0.91234696 0.40926397 0.011222659 
0.9073913 0.42013112 0.011442572 
0.90431297 0.42671508 0.011509476 
0.9029881 0.4295108 0.011532008 
0.90262747 0.4302712 0.0114136385 
0 0 0 
0 0 0 
0 0 0 
0 0 0 
0 0 0 
0 0 0 
0 0 0 
0 0 0 
0 0 0 
0 0 0 
0 0 0 
0.91188014 0.41029802 0.011408398 
0.90771604 0.41942662 0.011524628 
0.9011058 0.4334428 0.01164971 
0.9008067 0.4340673 0.011529082 
0.8990058 0.43779075 0.011307678 
0 0 0 
0 0 0 
0 0 0 
0 0 0 
0 0 0 
0 0 0 
0 0 0 
0 0 0 
0 0 0 
0 0 0 
0 0 0 
0 0 0 
0 0 0 
0.88959634 0.45659417 0.011844883 
0 0 0 
0 0 0 
0 0 0 
0 0 0 
0 0 0 
0 0 0 
0 0 0 
0 0 0 
0 0 0 
0 0 0 
0 0 0 
0 0 0 
0 0 0 
0 0 0 
0 0 0 
0 0 0 
0 0 0 
0 0 0 
0 0 0 
0 0 0 
0 0 0 
0 0 0 
0 0 0 
0 0 0 
0 0 0 
0 0 0 
0 0 0 
0 0 0 
0 0 0 
0 0 0 
0 0 0 
0 0 0 
0 0 0 
0 0 0 
0 0 0 
0 0 0 
0 0 0 
0 0 0 
0 0 0 
0 0 0 
0 0 0 
0 0 0 
0 0 0 
0 0 0 
0 0 0 
0 0 0 
0 0 0 
0 0 0 
0 0 0 
0 0 0 
0 0 0 
0 0 0 
0 0 0 
0 0 0 
0 0 0 
0 0 0 
0 0 0 
0 0 0 
0 0 0 
0 0 0 
0.90314037 0.42931402 0.0051992917 
0.9051056 0.425153 0.005369519 
0.90774834 0.419482 0.0052884663 
0.9106075 0.41323772 0.0053466377 
0 0 0 
0 0 0 
0 0 0 
0 0 0 
0 0 0 
0 0 0 
0 0 0 
0 0 0 
0 0 0 
0 0 0 
0 0 0 
0.91205275 0.41004196 0.0050472664 
0.90927476 0.4161624 0.0053364635 
0.9094525 0.4157761 0.0051333015 
0.9103552 0.41379172 0.005465231 
0.9131754 0.40753427 0.0051667704 
0.9184243 0.39556247 0.005196236 
0 0 0 
0 0 0 
0 0 0 
0 0 0 
0 0 0 
0 0 0 
0 0 0 
0 0 0 
0 0 0 
0 0 0 
0.9156527 0.4019369 0.0051900493 
0.91308135 0.40774614 0.0050696656 
0.911659 0.41091087 0.005493946 
0.9115957 0.4110568 0.0050561754 
0.91272324 0.4085426 0.0054086284 
0.916234 0.40061083 0.005119708 
0 0 0 
0 0 0 
0 0 0 
0 0 0 
0 0 0 
0 0 0 
0 0 0 
0 0 0 
0 0 0 
0 0 0 
0.9193369 0.39343828 0.0051037367 
0.91516685 0.4030392 0.005396747 
0.9128001 0.40837553 0.005050217 
0.9113961 0.41149354 0.005497468 
0.9115064 0.41125447 0.0050803176 
0.9132642 0.40733445 0.005206234 
0 0 0 
0 0 0 
0 0 0 
0 0 0 
0 0 0 
0 0 0 
0 0 0 
0 0 0 
0 0 0 
0 0 0 
0.92215663 0.38678196 0.005181241 
0.9164583 0.40009695 0.0051538907 
0.9124643 0.40911984 0.0054580597 
0.91006255 0.41443935 0.005133485 
0.9084938 0.41786402 0.005345699 
0.9101781 0.41418624 0.005062007 
0 0 0 
0 0 0 
0 0 0 
0 0 0 
0 0 0 
0 0 0 
0 0 0 
0 0 0 
0 0 0 
0 0 0 
0 0 0 
0.9145223 0.4045003 0.005334774 
0.91056055 0.413342 0.005280124 
0.9063989 0.42238867 0.0053682337 
0.9032206 0.4291452 0.0052030724 
0 0 0 
0 0 0 
0 0 0 
0 0 0 
0 0 0 
0 0 0 
0 0 0 
0 0 0 
0 0 0 
0 0 0 
0 0 0 
0 0 0 
0 0 0 
0 0 0 
0 0 0 
0 0 0 
0 0 0 
0 0 0 
0 0 0 
0 0 0 
0 0 0 
0 0 0 
0 0 0 
0 0 0 
0 0 0 
0 0 0 
0 0 0 
0 0 0 
0 0 0 
0 0 0 
0 0 0 
0 0 0 
0 0 0 
0 0 0 
0 0 0 
0 0 0 
0 0 0 
0 0 0 
0 0 0 
0 0 0 
# End: Data Text
# End: Segment
