# OOMMF: rectangular mesh v1.0
# Segment count: 1
# Begin: Segment
# Begin: Header
# Desc: Time (s) :  1.1369092046248027e-08
# Title: m
# meshtype: rectangular
# meshunit: m
# xbase: 2.5e-09
# ybase: 2.5e-09
# zbase: 2.25e-08
# xstepsize: 5e-09
# ystepsize: 5e-09
# zstepsize: 4.5e-08
# xmin: 0
# ymin: 0
# zmin: 0
# xmax: 8e-08
# ymax: 1.6e-07
# zmax: 4.5e-08
# xnodes: 16
# ynodes: 32
# znodes: 1
# ValueRangeMinMag: 1e-08
# ValueRangeMaxMag: 1
# valueunit: 
# valuemultiplier: 1
# End: Header
# Begin: Data Text
0 0 0 
0 0 0 
0 0 0 
0 0 0 
0 0 0 
0 0 0 
0 0 0 
0 0 0 
0 0 0 
0 0 0 
0 0 0 
0 0 0 
0 0 0 
0 0 0 
0 0 0 
0 0 0 
0 0 0 
0 0 0 
0 0 0 
0 0 0 
0 0 0 
0 0 0 
0 0 0 
0 0 0 
0 0 0 
0 0 0 
0 0 0 
0 0 0 
0 0 0 
0 0 0 
0 0 0 
0 0 0 
0 0 0 
0 0 0 
0 0 0 
0 0 0 
0 0 0 
0 0 0 
0 0 0 
0 0 0 
0 0 0 
0 0 0 
0 0 0 
0 0 0 
0 0 0 
0 0 0 
0 0 0 
0 0 0 
0 0 0 
0 0 0 
0 0 0 
0 0 0 
0 0 0 
0 0 0 
0 0 0 
0 0 0 
0 0 0 
0 0 0 
0 0 0 
0 0 0 
0 0 0 
0 0 0 
0 0 0 
0 0 0 
0 0 0 
0 0 0 
0 0 0 
0 0 0 
0 0 0 
0 0 0 
0 0 0 
0 0 0 
0 0 0 
0 0 0 
0 0 0 
0 0 0 
0 0 0 
0 0 0 
0 0 0 
0 0 0 
0 0 0 
0 0 0 
0 0 0 
0 0 0 
0 0 0 
0 0 0 
0 0 0 
0 0 0 
0 0 0 
0 0 0 
0 0 0 
0 0 0 
0 0 0 
0 0 0 
0 0 0 
0 0 0 
0 0 0 
0 0 0 
0 0 0 
0 0 0 
0 0 0 
0 0 0 
0.8811896 0.47265396 -0.010148242 
0.883181 0.4689166 -0.010425547 
0.88588285 0.46378756 -0.010613251 
0 0 0 
0 0 0 
0 0 0 
0 0 0 
0 0 0 
0 0 0 
0 0 0 
0 0 0 
0 0 0 
0 0 0 
0 0 0 
0 0 0 
0.88854957 0.45867467 -0.009866083 
0.8872 0.46127367 -0.010135816 
0.8874096 0.46086407 -0.010420231 
0.889469 0.45687097 -0.010669272 
0.8938211 0.44829184 -0.010876638 
0 0 0 
0 0 0 
0 0 0 
0 0 0 
0 0 0 
0 0 0 
0 0 0 
0 0 0 
0 0 0 
0 0 0 
0.89962 0.43657193 -0.009421231 
0.89224124 0.4514519 -0.009841456 
0.88934404 0.4571264 -0.010140055 
0.88850075 0.45875752 -0.010390549 
0.8890739 0.45764023 -0.0106365485 
0.89056647 0.45472413 -0.010831154 
0 0 0 
0 0 0 
0 0 0 
0 0 0 
0 0 0 
0 0 0 
0 0 0 
0 0 0 
0 0 0 
0 0 0 
0.9008452 0.43403614 -0.009521102 
0.89233446 0.45126456 -0.00998591 
0.8889627 0.45786574 -0.010215949 
0.8876647 0.46037263 -0.0104192225 
0.8874926 0.46070033 -0.010590916 
0.88746864 0.4607434 -0.010723377 
0 0 0 
0 0 0 
0 0 0 
0 0 0 
0 0 0 
0 0 0 
0 0 0 
0 0 0 
0 0 0 
0 0 0 
0 0 0 
0.8895354 0.45674908 -0.010341408 
0.88722456 0.4612207 -0.010396956 
0.88586736 0.46382004 -0.010486809 
0.8856102 0.46430883 -0.01058527 
0.88661474 0.462387 -0.010611052 
0 0 0 
0 0 0 
0 0 0 
0 0 0 
0 0 0 
0 0 0 
0 0 0 
0 0 0 
0 0 0 
0 0 0 
0 0 0 
0.88885176 0.45807526 -0.010475424 
0.88600767 0.46355093 -0.010537826 
0.883902 0.46755287 -0.010565675 
0.8814306 0.47219527 -0.010569025 
0 0 0 
0 0 0 
0 0 0 
0 0 0 
0 0 0 
0 0 0 
0 0 0 
0 0 0 
0 0 0 
0 0 0 
0 0 0 
0 0 0 
0 0 0 
0 0 0 
0 0 0 
0 0 0 
0 0 0 
0 0 0 
0 0 0 
0 0 0 
0 0 0 
0 0 0 
0 0 0 
0 0 0 
0 0 0 
0 0 0 
0 0 0 
0 0 0 
0 0 0 
0 0 0 
0 0 0 
0 0 0 
0 0 0 
0 0 0 
0 0 0 
0 0 0 
0 0 0 
0 0 0 
0 0 0 
0 0 0 
0 0 0 
0 0 0 
0 0 0 
0 0 0 
0 0 0 
0.89047205 0.45502096 0.0039299703 
0.8919782 0.45206094 0.003960222 
0.89396787 0.44811362 0.0039554676 
0 0 0 
0 0 0 
0 0 0 
0 0 0 
0 0 0 
0 0 0 
0 0 0 
0 0 0 
0 0 0 
0 0 0 
0 0 0 
0 0 0 
0.90274566 0.4301592 0.0036443304 
0.8995544 0.43679255 0.0038011153 
0.8996223 0.43665215 0.003828582 
0.9011051 0.43358347 0.0038685629 
0.9066446 0.42187828 0.0037920442 
0 0 0 
0 0 0 
0 0 0 
0 0 0 
0 0 0 
0 0 0 
0 0 0 
0 0 0 
0 0 0 
0 0 0 
0.91521627 0.40295002 0.0032462047 
0.9084318 0.41801846 0.0034965426 
0.9052391 0.42488727 0.0036107232 
0.9035055 0.4285602 0.0037484656 
0.9042939 0.4268941 0.0037417482 
0.9063599 0.4224896 0.003763409 
0 0 0 
0 0 0 
0 0 0 
0 0 0 
0 0 0 
0 0 0 
0 0 0 
0 0 0 
0 0 0 
0 0 0 
0.91765875 0.39735672 0.0032010183 
0.91181886 0.41057888 0.0033614454 
0.9077428 0.41951218 0.0035554178 
0.90606606 0.4231211 0.0036160427 
0.9055907 0.4241366 0.0037191708 
0.90839756 0.41809168 0.0036508585 
0.91831535 0.3958348 0.003427966 
0 0 0 
0 0 0 
0 0 0 
0 0 0 
0 0 0 
0 0 0 
0 0 0 
0 0 0 
0 0 0 
0.9204502 0.3908473 0.003140821 
0.91378087 0.40619388 0.0033428937 
0.90939975 0.41590893 0.0034683913 
0.9057717 0.42375037 0.003650491 
0.9050677 0.42525163 0.003688163 
0.9043449 0.426786 0.0037273995 
0 0 0 
0 0 0 
0 0 0 
0 0 0 
0 0 0 
0 0 0 
0 0 0 
0 0 0 
0 0 0 
0 0 0 
0 0 0 
0.9136559 0.40647456 0.0033639395 
0.9093822 0.4159468 0.0035103646 
0.9031771 0.42925262 0.0036634263 
0.9025709 0.43052518 0.003733948 
0.9009012 0.43400833 0.003708844 
0 0 0 
0 0 0 
0 0 0 
0 0 0 
0 0 0 
0 0 0 
0 0 0 
0 0 0 
0 0 0 
0 0 0 
0 0 0 
0 0 0 
0 0 0 
0.8917167 0.45257798 0.0037962492 
0 0 0 
0 0 0 
0 0 0 
0 0 0 
0 0 0 
0 0 0 
0 0 0 
0 0 0 
0 0 0 
0 0 0 
0 0 0 
0 0 0 
0 0 0 
0 0 0 
0 0 0 
0 0 0 
0 0 0 
0 0 0 
0 0 0 
0 0 0 
0 0 0 
0 0 0 
0 0 0 
0 0 0 
0 0 0 
0 0 0 
0 0 0 
0 0 0 
0 0 0 
0 0 0 
0 0 0 
0 0 0 
0 0 0 
0 0 0 
0 0 0 
0 0 0 
0 0 0 
0 0 0 
0 0 0 
0 0 0 
0 0 0 
0 0 0 
0 0 0 
0 0 0 
0 0 0 
0 0 0 
0 0 0 
0 0 0 
0 0 0 
0 0 0 
0 0 0 
0 0 0 
0 0 0 
0 0 0 
0 0 0 
0 0 0 
0 0 0 
0 0 0 
0 0 0 
0 0 0 
0.91162664 0.41023406 0.025395215 
0.91373795 0.40548554 0.025777254 
0.9163557 0.39950496 0.026229627 
0.9192614 0.3927835 0.026070025 
0 0 0 
0 0 0 
0 0 0 
0 0 0 
0 0 0 
0 0 0 
0 0 0 
0 0 0 
0 0 0 
0 0 0 
0 0 0 
0.91982216 0.39155823 0.024688348 
0.917498 0.39694116 0.025202457 
0.9176453 0.39654872 0.026004197 
0.91880476 0.39387703 0.025667552 
0.9213473 0.3878688 0.0260176 
0.9263363 0.37584752 0.025294375 
0 0 0 
0 0 0 
0 0 0 
0 0 0 
0 0 0 
0 0 0 
0 0 0 
0 0 0 
0 0 0 
0 0 0 
0.9234272 0.38296336 0.024925571 
0.92098916 0.3887397 0.025699675 
0.91996527 0.39118162 0.025318356 
0.9196309 0.3919201 0.026035864 
0.92091954 0.38892862 0.025331112 
0.92402864 0.38148442 0.025312131 
0 0 0 
0 0 0 
0 0 0 
0 0 0 
0 0 0 
0 0 0 
0 0 0 
0 0 0 
0 0 0 
0 0 0 
0.9270083 0.3741848 0.025326932 
0.9232581 0.38334492 0.025318997 
0.9207703 0.3892384 0.025990633 
0.9196844 0.39184642 0.025240473 
0.9194385 0.39239958 0.0256018 
0.9210946 0.38854706 0.02482121 
0 0 0 
0 0 0 
0 0 0 
0 0 0 
0 0 0 
0 0 0 
0 0 0 
0 0 0 
0 0 0 
0 0 0 
0.929884 0.3669862 0.025235888 
0.9244494 0.38042426 0.02590143 
0.9207664 0.3892797 0.02550795 
0.9181596 0.3953686 0.025817119 
0.9166723 0.39885673 0.025004532 
0.9179525 0.395932 0.024517763 
0 0 0 
0 0 0 
0 0 0 
0 0 0 
0 0 0 
0 0 0 
0 0 0 
0 0 0 
0 0 0 
0 0 0 
0 0 0 
0.9229251 0.38411003 0.025862424 
0.91895854 0.39349684 0.025989883 
0.9148761 0.40292805 0.025510408 
0.9115953 0.41032073 0.025122268 
0 0 0 
0 0 0 
0 0 0 
0 0 0 
0 0 0 
0 0 0 
0 0 0 
0 0 0 
0 0 0 
0 0 0 
0 0 0 
0 0 0 
0 0 0 
0 0 0 
0 0 0 
0 0 0 
0 0 0 
0 0 0 
0 0 0 
0 0 0 
0 0 0 
0 0 0 
0 0 0 
0 0 0 
0 0 0 
0 0 0 
0 0 0 
0 0 0 
0 0 0 
0 0 0 
0 0 0 
0 0 0 
0 0 0 
0 0 0 
0 0 0 
0 0 0 
0 0 0 
0 0 0 
0 0 0 
0 0 0 
# End: Data Text
# End: Segment
