# OOMMF: rectangular mesh v1.0
# Segment count: 1
# Begin: Segment
# Begin: Header
# Desc: Time (s) :  4.236482426933261e-09
# Title: m
# meshtype: rectangular
# meshunit: m
# xbase: 2.5e-09
# ybase: 2.5e-09
# zbase: 2.25e-08
# xstepsize: 5e-09
# ystepsize: 5e-09
# zstepsize: 4.5e-08
# xmin: 0
# ymin: 0
# zmin: 0
# xmax: 8e-08
# ymax: 1.6e-07
# zmax: 4.5e-08
# xnodes: 16
# ynodes: 32
# znodes: 1
# ValueRangeMinMag: 1e-08
# ValueRangeMaxMag: 1
# valueunit: 
# valuemultiplier: 1
# End: Header
# Begin: Data Text
0 0 0 
0 0 0 
0 0 0 
0 0 0 
0 0 0 
0 0 0 
0 0 0 
0 0 0 
0 0 0 
0 0 0 
0 0 0 
0 0 0 
0 0 0 
0 0 0 
0 0 0 
0 0 0 
0 0 0 
0 0 0 
0 0 0 
0 0 0 
0 0 0 
0 0 0 
0 0 0 
0 0 0 
0 0 0 
0 0 0 
0 0 0 
0 0 0 
0 0 0 
0 0 0 
0 0 0 
0 0 0 
0 0 0 
0 0 0 
0 0 0 
0 0 0 
0 0 0 
0 0 0 
0 0 0 
0 0 0 
0 0 0 
0 0 0 
0 0 0 
0 0 0 
0 0 0 
0 0 0 
0 0 0 
0 0 0 
0 0 0 
0 0 0 
0 0 0 
0 0 0 
0 0 0 
0 0 0 
0 0 0 
0 0 0 
0 0 0 
0 0 0 
0 0 0 
0 0 0 
0 0 0 
0 0 0 
0 0 0 
0 0 0 
0 0 0 
0 0 0 
0 0 0 
0 0 0 
0 0 0 
0 0 0 
0 0 0 
0 0 0 
0 0 0 
0 0 0 
0 0 0 
0 0 0 
0 0 0 
0 0 0 
0 0 0 
0 0 0 
0 0 0 
0 0 0 
0 0 0 
0 0 0 
0 0 0 
0 0 0 
0 0 0 
0 0 0 
0 0 0 
0 0 0 
0 0 0 
0 0 0 
0 0 0 
0 0 0 
0 0 0 
0 0 0 
0 0 0 
0 0 0 
0 0 0 
0 0 0 
0 0 0 
0 0 0 
0.9000104 0.43571874 0.011418257 
0.9022388 0.43108237 0.011543382 
0.9050952 0.42505062 0.011609198 
0 0 0 
0 0 0 
0 0 0 
0 0 0 
0 0 0 
0 0 0 
0 0 0 
0 0 0 
0 0 0 
0 0 0 
0 0 0 
0 0 0 
0.9058822 0.42338338 0.011133496 
0.9051895 0.42485815 0.011292706 
0.90584975 0.42344207 0.011539721 
0.9080277 0.41875127 0.011534218 
0.9122356 0.40950143 0.011614635 
0 0 0 
0 0 0 
0 0 0 
0 0 0 
0 0 0 
0 0 0 
0 0 0 
0 0 0 
0 0 0 
0 0 0 
0.9152924 0.40265313 0.010500642 
0.90920115 0.41621318 0.010951486 
0.9071133 0.42073408 0.011330203 
0.9066673 0.42169365 0.01135378 
0.90751094 0.41986823 0.011608549 
0.9090561 0.41651154 0.011628923 
0 0 0 
0 0 0 
0 0 0 
0 0 0 
0 0 0 
0 0 0 
0 0 0 
0 0 0 
0 0 0 
0 0 0 
0.9165799 0.39971298 0.010528992 
0.90955365 0.4154385 0.011090865 
0.9068219 0.42136487 0.011217837 
0.9059491 0.4232296 0.011526021 
0.90591466 0.42330375 0.011513047 
0.9059887 0.42314094 0.011672496 
0 0 0 
0 0 0 
0 0 0 
0 0 0 
0 0 0 
0 0 0 
0 0 0 
0 0 0 
0 0 0 
0 0 0 
0 0 0 
0.9076343 0.4196096 0.011307088 
0.90555155 0.42408124 0.011467686 
0.9043389 0.42666075 0.011480518 
0.9041678 0.42701834 0.011663812 
0.90490746 0.42545006 0.011602102 
0 0 0 
0 0 0 
0 0 0 
0 0 0 
0 0 0 
0 0 0 
0 0 0 
0 0 0 
0 0 0 
0 0 0 
0 0 0 
0.9075436 0.41980353 0.0113898665 
0.9047458 0.42579654 0.011507409 
0.9026582 0.43020046 0.011645027 
0.90030885 0.43509507 0.011670564 
0 0 0 
0 0 0 
0 0 0 
0 0 0 
0 0 0 
0 0 0 
0 0 0 
0 0 0 
0 0 0 
0 0 0 
0 0 0 
0 0 0 
0 0 0 
0 0 0 
0 0 0 
0 0 0 
0 0 0 
0 0 0 
0 0 0 
0 0 0 
0 0 0 
0 0 0 
0 0 0 
0 0 0 
0 0 0 
0 0 0 
0 0 0 
0 0 0 
0 0 0 
0 0 0 
0 0 0 
0 0 0 
0 0 0 
0 0 0 
0 0 0 
0 0 0 
0 0 0 
0 0 0 
0 0 0 
0 0 0 
0 0 0 
0 0 0 
0 0 0 
0 0 0 
0 0 0 
0.88883436 0.45807445 0.011886194 
0.8903766 0.45507112 0.011820888 
0.8921568 0.45156717 0.011974054 
0 0 0 
0 0 0 
0 0 0 
0 0 0 
0 0 0 
0 0 0 
0 0 0 
0 0 0 
0 0 0 
0 0 0 
0 0 0 
0 0 0 
0.9012029 0.4332448 0.011504612 
0.8981815 0.4394755 0.011461355 
0.8977609 0.44032001 0.011989959 
0.8995315 0.43670204 0.011601919 
0.9048232 0.42562574 0.011736239 
0 0 0 
0 0 0 
0 0 0 
0 0 0 
0 0 0 
0 0 0 
0 0 0 
0 0 0 
0 0 0 
0 0 0 
0.91379154 0.40604028 0.0107900025 
0.9071215 0.42072472 0.011013334 
0.90337425 0.42869133 0.011778548 
0.9021619 0.43125215 0.011207692 
0.9023091 0.43092632 0.011871013 
0.9046854 0.4259262 0.011456828 
0 0 0 
0 0 0 
0 0 0 
0 0 0 
0 0 0 
0 0 0 
0 0 0 
0 0 0 
0 0 0 
0 0 0 
0.9162978 0.4003555 0.010673923 
0.91008204 0.41427243 0.01136509 
0.90643007 0.42221323 0.010983702 
0.90401596 0.42733493 0.011831878 
0.9041116 0.4271516 0.011128237 
0.90651435 0.4220205 0.0114196995 
0.9167388 0.3993472 0.010574917 
0 0 0 
0 0 0 
0 0 0 
0 0 0 
0 0 0 
0 0 0 
0 0 0 
0 0 0 
0 0 0 
0.9189519 0.39422163 0.010804905 
0.91233546 0.4092964 0.010977493 
0.90746623 0.41996425 0.011624354 
0.904275 0.42680538 0.011140337 
0.9030561 0.42936411 0.011676766 
0.90262985 0.4302708 0.0112469485 
0 0 0 
0 0 0 
0 0 0 
0 0 0 
0 0 0 
0 0 0 
0 0 0 
0 0 0 
0 0 0 
0 0 0 
0 0 0 
0.9119121 0.41022784 0.011377887 
0.90771705 0.41942957 0.0113403285 
0.9011592 0.43332982 0.011718089 
0.9008088 0.43406737 0.011360358 
0.89903426 0.43773335 0.011267158 
0 0 0 
0 0 0 
0 0 0 
0 0 0 
0 0 0 
0 0 0 
0 0 0 
0 0 0 
0 0 0 
0 0 0 
0 0 0 
0 0 0 
0 0 0 
0.8896153 0.45656 0.011739007 
0 0 0 
0 0 0 
0 0 0 
0 0 0 
0 0 0 
0 0 0 
0 0 0 
0 0 0 
0 0 0 
0 0 0 
0 0 0 
0 0 0 
0 0 0 
0 0 0 
0 0 0 
0 0 0 
0 0 0 
0 0 0 
0 0 0 
0 0 0 
0 0 0 
0 0 0 
0 0 0 
0 0 0 
0 0 0 
0 0 0 
0 0 0 
0 0 0 
0 0 0 
0 0 0 
0 0 0 
0 0 0 
0 0 0 
0 0 0 
0 0 0 
0 0 0 
0 0 0 
0 0 0 
0 0 0 
0 0 0 
0 0 0 
0 0 0 
0 0 0 
0 0 0 
0 0 0 
0 0 0 
0 0 0 
0 0 0 
0 0 0 
0 0 0 
0 0 0 
0 0 0 
0 0 0 
0 0 0 
0 0 0 
0 0 0 
0 0 0 
0 0 0 
0 0 0 
0 0 0 
0.90314454 0.42930603 0.005119215 
0.90517163 0.42501378 0.0052607926 
0.90773654 0.4195083 0.005213064 
0.91065514 0.41313416 0.005243829 
0 0 0 
0 0 0 
0 0 0 
0 0 0 
0 0 0 
0 0 0 
0 0 0 
0 0 0 
0 0 0 
0 0 0 
0 0 0 
0.9120558 0.41003615 0.00497075 
0.9093766 0.4159412 0.005213395 
0.9093678 0.41596177 0.0050924304 
0.91049075 0.41349518 0.0053241537 
0.91312593 0.40764555 0.0051100566 
0.9184689 0.3954605 0.0050986144 
0 0 0 
0 0 0 
0 0 0 
0 0 0 
0 0 0 
0 0 0 
0 0 0 
0 0 0 
0 0 0 
0 0 0 
0.9157139 0.40179878 0.0050859735 
0.91299784 0.40793362 0.005030763 
0.91183645 0.41051906 0.00533471 
0.9114688 0.4113385 0.005035315 
0.91285646 0.40824667 0.005270598 
0.916221 0.40064153 0.0050504114 
0 0 0 
0 0 0 
0 0 0 
0 0 0 
0 0 0 
0 0 0 
0 0 0 
0 0 0 
0 0 0 
0 0 0 
0.9193248 0.39346743 0.005033126 
0.91529876 0.40274134 0.0052568153 
0.91267383 0.40865788 0.005030497 
0.9115739 0.41110152 0.0053388583 
0.91142166 0.41144276 0.0050430167 
0.9133257 0.4071978 0.005104034 
0 0 0 
0 0 0 
0 0 0 
0 0 0 
0 0 0 
0 0 0 
0 0 0 
0 0 0 
0 0 0 
0 0 0 
0.92220086 0.38667783 0.0050817565 
0.91640997 0.40020847 0.0050985524 
0.91259855 0.40882227 0.0053183883 
0.9099774 0.4146267 0.005094652 
0.90859616 0.41764304 0.005223904 
0.91018057 0.41418177 0.004989237 
0 0 0 
0 0 0 
0 0 0 
0 0 0 
0 0 0 
0 0 0 
0 0 0 
0 0 0 
0 0 0 
0 0 0 
0 0 0 
0.9145689 0.40439638 0.0052360753 
0.91054845 0.41336957 0.005207421 
0.90646404 0.4222502 0.005262143 
0.9032241 0.42913857 0.0051264144 
0 0 0 
0 0 0 
0 0 0 
0 0 0 
0 0 0 
0 0 0 
0 0 0 
0 0 0 
0 0 0 
0 0 0 
0 0 0 
0 0 0 
0 0 0 
0 0 0 
0 0 0 
0 0 0 
0 0 0 
0 0 0 
0 0 0 
0 0 0 
0 0 0 
0 0 0 
0 0 0 
0 0 0 
0 0 0 
0 0 0 
0 0 0 
0 0 0 
0 0 0 
0 0 0 
0 0 0 
0 0 0 
0 0 0 
0 0 0 
0 0 0 
0 0 0 
0 0 0 
0 0 0 
0 0 0 
0 0 0 
# End: Data Text
# End: Segment
