# OOMMF: rectangular mesh v1.0
# Segment count: 1
# Begin: Segment
# Begin: Header
# Desc: Time (s) :  8.310054654306552e-09
# Title: m
# meshtype: rectangular
# meshunit: m
# xbase: 2.5e-09
# ybase: 2.5e-09
# zbase: 2.25e-08
# xstepsize: 5e-09
# ystepsize: 5e-09
# zstepsize: 4.5e-08
# xmin: 0
# ymin: 0
# zmin: 0
# xmax: 8e-08
# ymax: 1.6e-07
# zmax: 4.5e-08
# xnodes: 16
# ynodes: 32
# znodes: 1
# ValueRangeMinMag: 1e-08
# ValueRangeMaxMag: 1
# valueunit: 
# valuemultiplier: 1
# End: Header
# Begin: Data Text
0 0 0 
0 0 0 
0 0 0 
0 0 0 
0 0 0 
0 0 0 
0 0 0 
0 0 0 
0 0 0 
0 0 0 
0 0 0 
0 0 0 
0 0 0 
0 0 0 
0 0 0 
0 0 0 
0 0 0 
0 0 0 
0 0 0 
0 0 0 
0 0 0 
0 0 0 
0 0 0 
0 0 0 
0 0 0 
0 0 0 
0 0 0 
0 0 0 
0 0 0 
0 0 0 
0 0 0 
0 0 0 
0 0 0 
0 0 0 
0 0 0 
0 0 0 
0 0 0 
0 0 0 
0 0 0 
0 0 0 
0 0 0 
0 0 0 
0 0 0 
0 0 0 
0 0 0 
0 0 0 
0 0 0 
0 0 0 
0 0 0 
0 0 0 
0 0 0 
0 0 0 
0 0 0 
0 0 0 
0 0 0 
0 0 0 
0 0 0 
0 0 0 
0 0 0 
0 0 0 
0 0 0 
0 0 0 
0 0 0 
0 0 0 
0 0 0 
0 0 0 
0 0 0 
0 0 0 
0 0 0 
0 0 0 
0 0 0 
0 0 0 
0 0 0 
0 0 0 
0 0 0 
0 0 0 
0 0 0 
0 0 0 
0 0 0 
0 0 0 
0 0 0 
0 0 0 
0 0 0 
0 0 0 
0 0 0 
0 0 0 
0 0 0 
0 0 0 
0 0 0 
0 0 0 
0 0 0 
0 0 0 
0 0 0 
0 0 0 
0 0 0 
0 0 0 
0 0 0 
0 0 0 
0 0 0 
0 0 0 
0 0 0 
0 0 0 
0.8758951 0.4823805 0.0108065065 
0.8777796 0.47893927 0.010960533 
0.88039964 0.4741046 0.011016318 
0 0 0 
0 0 0 
0 0 0 
0 0 0 
0 0 0 
0 0 0 
0 0 0 
0 0 0 
0 0 0 
0 0 0 
0 0 0 
0 0 0 
0.88370526 0.46792623 0.0104966005 
0.8821248 0.4708939 0.010716759 
0.8821577 0.4708281 0.010896205 
0.88412553 0.46712038 0.010979636 
0.8884678 0.45880622 0.011035894 
0 0 0 
0 0 0 
0 0 0 
0 0 0 
0 0 0 
0 0 0 
0 0 0 
0 0 0 
0 0 0 
0 0 0 
0.8952708 0.44541293 0.009871704 
0.8874931 0.46070492 0.010343784 
0.8843125 0.4667745 0.01063867 
0.883282 0.46871802 0.010795767 
0.8837245 0.46787938 0.0109573435 
0.8851593 0.4651568 0.011052733 
0 0 0 
0 0 0 
0 0 0 
0 0 0 
0 0 0 
0 0 0 
0 0 0 
0 0 0 
0 0 0 
0 0 0 
0.89646834 0.4429973 0.009901289 
0.88749444 0.46070147 0.010383438 
0.88386315 0.46762535 0.010606658 
0.8823682 0.47043547 0.010809814 
0.8820827 0.47096807 0.01092656 
0.88200325 0.4711142 0.011036463 
0 0 0 
0 0 0 
0 0 0 
0 0 0 
0 0 0 
0 0 0 
0 0 0 
0 0 0 
0 0 0 
0 0 0 
0 0 0 
0.8843973 0.4666145 0.010602209 
0.8819512 0.47121912 0.010711868 
0.88044965 0.47401595 0.010829277 
0.8800983 0.4746652 0.010959858 
0.88116074 0.47268957 0.010971912 
0 0 0 
0 0 0 
0 0 0 
0 0 0 
0 0 0 
0 0 0 
0 0 0 
0 0 0 
0 0 0 
0 0 0 
0 0 0 
0.8835177 0.46827725 0.010626177 
0.88057446 0.47378552 0.010765563 
0.8783526 0.47788933 0.01089122 
0.8757679 0.482608 0.010958154 
0 0 0 
0 0 0 
0 0 0 
0 0 0 
0 0 0 
0 0 0 
0 0 0 
0 0 0 
0 0 0 
0 0 0 
0 0 0 
0 0 0 
0 0 0 
0 0 0 
0 0 0 
0 0 0 
0 0 0 
0 0 0 
0 0 0 
0 0 0 
0 0 0 
0 0 0 
0 0 0 
0 0 0 
0 0 0 
0 0 0 
0 0 0 
0 0 0 
0 0 0 
0 0 0 
0 0 0 
0 0 0 
0 0 0 
0 0 0 
0 0 0 
0 0 0 
0 0 0 
0 0 0 
0 0 0 
0 0 0 
0 0 0 
0 0 0 
0 0 0 
0 0 0 
0 0 0 
0.86448735 0.5010447 0.040197063 
0.86580455 0.4987398 0.0405103 
0.8676487 0.49551368 0.040642742 
0 0 0 
0 0 0 
0 0 0 
0 0 0 
0 0 0 
0 0 0 
0 0 0 
0 0 0 
0 0 0 
0 0 0 
0 0 0 
0 0 0 
0.8793738 0.47451177 0.03924665 
0.8752159 0.4820782 0.039973374 
0.8749661 0.48252264 0.04007926 
0.8764262 0.47983965 0.04038467 
0.8826447 0.46832645 0.040108975 
0 0 0 
0 0 0 
0 0 0 
0 0 0 
0 0 0 
0 0 0 
0 0 0 
0 0 0 
0 0 0 
0 0 0 
0.8941706 0.44615555 0.037472438 
0.8858699 0.46229997 0.038900748 
0.8818673 0.4698581 0.039285656 
0.87978745 0.47369954 0.039785873 
0.88065106 0.47211012 0.039571 
0.8830211 0.46765384 0.039669707 
0 0 0 
0 0 0 
0 0 0 
0 0 0 
0 0 0 
0 0 0 
0 0 0 
0 0 0 
0 0 0 
0 0 0 
0.8966052 0.44122154 0.037721477 
0.8895533 0.4551941 0.038643483 
0.8848095 0.46429178 0.03931161 
0.88294274 0.46784988 0.039097153 
0.8826565 0.46838087 0.03920347 
0.88626415 0.46158612 0.038394526 
0.8985067 0.43744925 0.036385912 
0 0 0 
0 0 0 
0 0 0 
0 0 0 
0 0 0 
0 0 0 
0 0 0 
0 0 0 
0 0 0 
0.8994256 0.43543172 0.037853006 
0.8915057 0.45132518 0.03902868 
0.88660234 0.4608746 0.03912778 
0.8827311 0.46822938 0.03933467 
0.8823279 0.46903083 0.03882978 
0.88202643 0.46962464 0.03849611 
0 0 0 
0 0 0 
0 0 0 
0 0 0 
0 0 0 
0 0 0 
0 0 0 
0 0 0 
0 0 0 
0 0 0 
0 0 0 
0.89081585 0.4526444 0.03950067 
0.8863554 0.46130678 0.039626643 
0.8796707 0.47395283 0.039347958 
0.8797732 0.47380286 0.0388581 
0.8786204 0.47601888 0.03784499 
0 0 0 
0 0 0 
0 0 0 
0 0 0 
0 0 0 
0 0 0 
0 0 0 
0 0 0 
0 0 0 
0 0 0 
0 0 0 
0 0 0 
0 0 0 
0.8660614 0.49835786 0.039715722 
0 0 0 
0 0 0 
0 0 0 
0 0 0 
0 0 0 
0 0 0 
0 0 0 
0 0 0 
0 0 0 
0 0 0 
0 0 0 
0 0 0 
0 0 0 
0 0 0 
0 0 0 
0 0 0 
0 0 0 
0 0 0 
0 0 0 
0 0 0 
0 0 0 
0 0 0 
0 0 0 
0 0 0 
0 0 0 
0 0 0 
0 0 0 
0 0 0 
0 0 0 
0 0 0 
0 0 0 
0 0 0 
0 0 0 
0 0 0 
0 0 0 
0 0 0 
0 0 0 
0 0 0 
0 0 0 
0 0 0 
0 0 0 
0 0 0 
0 0 0 
0 0 0 
0 0 0 
0 0 0 
0 0 0 
0 0 0 
0 0 0 
0 0 0 
0 0 0 
0 0 0 
0 0 0 
0 0 0 
0 0 0 
0 0 0 
0 0 0 
0 0 0 
0 0 0 
0 0 0 
0.9181755 0.39615193 -0.004157375 
0.9202785 0.39124092 -0.0042406623 
0.92305744 0.38463742 -0.004373316 
0.9258817 0.37778845 -0.0043665227 
0 0 0 
0 0 0 
0 0 0 
0 0 0 
0 0 0 
0 0 0 
0 0 0 
0 0 0 
0 0 0 
0 0 0 
0 0 0 
0.92587656 0.37780488 -0.004033582 
0.9236859 0.38312864 -0.004106423 
0.92421657 0.3818446 -0.004300603 
0.92511857 0.379655 -0.0042244233 
0.927864 0.3728934 -0.0043448536 
0.9324741 0.36121243 -0.004210193 
0 0 0 
0 0 0 
0 0 0 
0 0 0 
0 0 0 
0 0 0 
0 0 0 
0 0 0 
0 0 0 
0 0 0 
0.9293965 0.36906037 -0.0040797098 
0.92737585 0.37410727 -0.0042386996 
0.92611134 0.37722778 -0.004120519 
0.9262367 0.376918 -0.004308884 
0.9271128 0.37475973 -0.004140824 
0.93023634 0.36693725 -0.0041746376 
0 0 0 
0 0 0 
0 0 0 
0 0 0 
0 0 0 
0 0 0 
0 0 0 
0 0 0 
0 0 0 
0 0 0 
0.9330852 0.35963094 -0.004188483 
0.9293655 0.36913788 -0.004140652 
0.92735165 0.3741665 -0.0042879563 
0.9258779 0.37780097 -0.00407676 
0.9259347 0.3776607 -0.004177746 
0.9272043 0.37453443 -0.0040119584 
0 0 0 
0 0 0 
0 0 0 
0 0 0 
0 0 0 
0 0 0 
0 0 0 
0 0 0 
0 0 0 
0 0 0 
0.9358968 0.3522494 -0.0041800844 
0.9308931 0.36526665 -0.004284925 
0.9270821 0.37483564 -0.00414126 
0.92480403 0.3804208 -0.0041971323 
0.9229893 0.384805 -0.003991387 
0.92416304 0.38197803 -0.003927052 
0 0 0 
0 0 0 
0 0 0 
0 0 0 
0 0 0 
0 0 0 
0 0 0 
0 0 0 
0 0 0 
0 0 0 
0 0 0 
0.929501 0.36879513 -0.0042503485 
0.9256806 0.3782823 -0.0042424984 
0.92151296 0.3883261 -0.0040918174 
0.9182913 0.39588508 -0.004002195 
0 0 0 
0 0 0 
0 0 0 
0 0 0 
0 0 0 
0 0 0 
0 0 0 
0 0 0 
0 0 0 
0 0 0 
0 0 0 
0 0 0 
0 0 0 
0 0 0 
0 0 0 
0 0 0 
0 0 0 
0 0 0 
0 0 0 
0 0 0 
0 0 0 
0 0 0 
0 0 0 
0 0 0 
0 0 0 
0 0 0 
0 0 0 
0 0 0 
0 0 0 
0 0 0 
0 0 0 
0 0 0 
0 0 0 
0 0 0 
0 0 0 
0 0 0 
0 0 0 
0 0 0 
0 0 0 
0 0 0 
# End: Data Text
# End: Segment
