# OOMMF: rectangular mesh v1.0
# Segment count: 1
# Begin: Segment
# Begin: Header
# Desc: Time (s) :  1.3442275411930382e-08
# Title: m
# meshtype: rectangular
# meshunit: m
# xbase: 2.5e-09
# ybase: 2.5e-09
# zbase: 2.25e-08
# xstepsize: 5e-09
# ystepsize: 5e-09
# zstepsize: 4.5e-08
# xmin: 0
# ymin: 0
# zmin: 0
# xmax: 8e-08
# ymax: 1.6e-07
# zmax: 4.5e-08
# xnodes: 16
# ynodes: 32
# znodes: 1
# ValueRangeMinMag: 1e-08
# ValueRangeMaxMag: 1
# valueunit: 
# valuemultiplier: 1
# End: Header
# Begin: Data Text
0 0 0 
0 0 0 
0 0 0 
0 0 0 
0 0 0 
0 0 0 
0 0 0 
0 0 0 
0 0 0 
0 0 0 
0 0 0 
0 0 0 
0 0 0 
0 0 0 
0 0 0 
0 0 0 
0 0 0 
0 0 0 
0 0 0 
0 0 0 
0 0 0 
0 0 0 
0 0 0 
0 0 0 
0 0 0 
0 0 0 
0 0 0 
0 0 0 
0 0 0 
0 0 0 
0 0 0 
0 0 0 
0 0 0 
0 0 0 
0 0 0 
0 0 0 
0 0 0 
0 0 0 
0 0 0 
0 0 0 
0 0 0 
0 0 0 
0 0 0 
0 0 0 
0 0 0 
0 0 0 
0 0 0 
0 0 0 
0 0 0 
0 0 0 
0 0 0 
0 0 0 
0 0 0 
0 0 0 
0 0 0 
0 0 0 
0 0 0 
0 0 0 
0 0 0 
0 0 0 
0 0 0 
0 0 0 
0 0 0 
0 0 0 
0 0 0 
0 0 0 
0 0 0 
0 0 0 
0 0 0 
0 0 0 
0 0 0 
0 0 0 
0 0 0 
0 0 0 
0 0 0 
0 0 0 
0 0 0 
0 0 0 
0 0 0 
0 0 0 
0 0 0 
0 0 0 
0 0 0 
0 0 0 
0 0 0 
0 0 0 
0 0 0 
0 0 0 
0 0 0 
0 0 0 
0 0 0 
0 0 0 
0 0 0 
0 0 0 
0 0 0 
0 0 0 
0 0 0 
0 0 0 
0 0 0 
0 0 0 
0 0 0 
0 0 0 
0.8952285 0.44384485 0.039591648 
0.8973832 0.43940684 0.0403121 
0.9001837 0.43360966 0.040643573 
0 0 0 
0 0 0 
0 0 0 
0 0 0 
0 0 0 
0 0 0 
0 0 0 
0 0 0 
0 0 0 
0 0 0 
0 0 0 
0 0 0 
0.9014711 0.43112293 0.038507 
0.9006092 0.43284124 0.039389405 
0.9011094 0.43173254 0.04011122 
0.90325516 0.4271749 0.04064282 
0.9074619 0.41813177 0.04097427 
0 0 0 
0 0 0 
0 0 0 
0 0 0 
0 0 0 
0 0 0 
0 0 0 
0 0 0 
0 0 0 
0 0 0 
0.9113278 0.4100665 0.036431678 
0.9048966 0.42391732 0.038161505 
0.90255 0.42879826 0.03918774 
0.90200675 0.42987168 0.039927915 
0.90272087 0.42831326 0.040530857 
0.90424895 0.42503116 0.041017365 
0 0 0 
0 0 0 
0 0 0 
0 0 0 
0 0 0 
0 0 0 
0 0 0 
0 0 0 
0 0 0 
0 0 0 
0.91259766 0.40721175 0.03666316 
0.90515244 0.42334414 0.038457107 
0.90225035 0.4294144 0.039339777 
0.90119624 0.4315633 0.039983004 
0.90112597 0.43166068 0.040511157 
0.9011373 0.4316026 0.04087692 
0 0 0 
0 0 0 
0 0 0 
0 0 0 
0 0 0 
0 0 0 
0 0 0 
0 0 0 
0 0 0 
0 0 0 
0 0 0 
0.9029989 0.42781737 0.03956334 
0.9008069 0.43238732 0.039851494 
0.89953834 0.43498242 0.040265817 
0.8992864 0.43547106 0.040607195 
0.9000938 0.4337973 0.040634856 
0 0 0 
0 0 0 
0 0 0 
0 0 0 
0 0 0 
0 0 0 
0 0 0 
0 0 0 
0 0 0 
0 0 0 
0 0 0 
0.90275073 0.42831463 0.039846778 
0.89989656 0.4342402 0.04026956 
0.8977395 0.43865585 0.040556997 
0.8953338 0.44353154 0.040709283 
0 0 0 
0 0 0 
0 0 0 
0 0 0 
0 0 0 
0 0 0 
0 0 0 
0 0 0 
0 0 0 
0 0 0 
0 0 0 
0 0 0 
0 0 0 
0 0 0 
0 0 0 
0 0 0 
0 0 0 
0 0 0 
0 0 0 
0 0 0 
0 0 0 
0 0 0 
0 0 0 
0 0 0 
0 0 0 
0 0 0 
0 0 0 
0 0 0 
0 0 0 
0 0 0 
0 0 0 
0 0 0 
0 0 0 
0 0 0 
0 0 0 
0 0 0 
0 0 0 
0 0 0 
0 0 0 
0 0 0 
0 0 0 
0 0 0 
0 0 0 
0 0 0 
0 0 0 
0.87938505 0.4752281 0.028986724 
0.8808833 0.47244045 0.029063165 
0.8825985 0.46921617 0.029259216 
0 0 0 
0 0 0 
0 0 0 
0 0 0 
0 0 0 
0 0 0 
0 0 0 
0 0 0 
0 0 0 
0 0 0 
0 0 0 
0 0 0 
0.89272225 0.44971856 0.02828931 
0.88938135 0.4562739 0.02854842 
0.8887725 0.45742694 0.02905558 
0.890599 0.4538743 0.028839223 
0.8961076 0.44289866 0.028844578 
0 0 0 
0 0 0 
0 0 0 
0 0 0 
0 0 0 
0 0 0 
0 0 0 
0 0 0 
0 0 0 
0 0 0 
0.9061851 0.4220236 0.026919954 
0.89898276 0.4371047 0.027739583 
0.8948441 0.44546333 0.028573848 
0.89359486 0.4479843 0.028257145 
0.8936646 0.4478143 0.02874085 
0.8962108 0.44271803 0.028407473 
0 0 0 
0 0 0 
0 0 0 
0 0 0 
0 0 0 
0 0 0 
0 0 0 
0 0 0 
0 0 0 
0 0 0 
0.90870756 0.41656202 0.026959805 
0.90198153 0.43086696 0.027985042 
0.89814806 0.4388066 0.027909106 
0.8955288 0.44408748 0.028541569 
0.89578575 0.44360796 0.0279256 
0.89840895 0.43827885 0.027804645 
0.90952015 0.41483837 0.026120698 
0 0 0 
0 0 0 
0 0 0 
0 0 0 
0 0 0 
0 0 0 
0 0 0 
0 0 0 
0 0 0 
0.911353 0.41072842 0.02716459 
0.9042786 0.4260343 0.027841972 
0.89911467 0.43678886 0.028435253 
0.8958896 0.44339076 0.028046548 
0.89468306 0.44580638 0.02826437 
0.8944551 0.44629925 0.02769882 
0 0 0 
0 0 0 
0 0 0 
0 0 0 
0 0 0 
0 0 0 
0 0 0 
0 0 0 
0 0 0 
0 0 0 
0 0 0 
0.9035927 0.42744794 0.028433854 
0.89931524 0.43637645 0.02842147 
0.89248794 0.4501647 0.028585464 
0.89243126 0.45031413 0.027994074 
0.8908202 0.453528 0.027418662 
0 0 0 
0 0 0 
0 0 0 
0 0 0 
0 0 0 
0 0 0 
0 0 0 
0 0 0 
0 0 0 
0 0 0 
0 0 0 
0 0 0 
0 0 0 
0.8801107 0.47389582 0.028774243 
0 0 0 
0 0 0 
0 0 0 
0 0 0 
0 0 0 
0 0 0 
0 0 0 
0 0 0 
0 0 0 
0 0 0 
0 0 0 
0 0 0 
0 0 0 
0 0 0 
0 0 0 
0 0 0 
0 0 0 
0 0 0 
0 0 0 
0 0 0 
0 0 0 
0 0 0 
0 0 0 
0 0 0 
0 0 0 
0 0 0 
0 0 0 
0 0 0 
0 0 0 
0 0 0 
0 0 0 
0 0 0 
0 0 0 
0 0 0 
0 0 0 
0 0 0 
0 0 0 
0 0 0 
0 0 0 
0 0 0 
0 0 0 
0 0 0 
0 0 0 
0 0 0 
0 0 0 
0 0 0 
0 0 0 
0 0 0 
0 0 0 
0 0 0 
0 0 0 
0 0 0 
0 0 0 
0 0 0 
0 0 0 
0 0 0 
0 0 0 
0 0 0 
0 0 0 
0 0 0 
0.89286816 0.450317 0.0009939527 
0.89478457 0.44649684 0.001095197 
0.8972375 0.44154736 0.0009131375 
0.9001754 0.43552658 0.0009900909 
0 0 0 
0 0 0 
0 0 0 
0 0 0 
0 0 0 
0 0 0 
0 0 0 
0 0 0 
0 0 0 
0 0 0 
0 0 0 
0.9026332 0.4304095 0.00096706394 
0.899545 0.43682644 0.0011768619 
0.89927495 0.43738303 0.00081031857 
0.9004193 0.43502167 0.0012071283 
0.9030992 0.4294313 0.0008182344 
0.9088926 0.41702923 0.00097004836 
0 0 0 
0 0 0 
0 0 0 
0 0 0 
0 0 0 
0 0 0 
0 0 0 
0 0 0 
0 0 0 
0 0 0 
0.9063508 0.42252466 0.0010760146 
0.9032553 0.42910296 0.0008100451 
0.90201694 0.43169874 0.0013203277 
0.90151906 0.43273884 0.0007226161 
0.903115 0.4293971 0.0012114416 
0.9067365 0.42169678 0.0009020869 
0 0 0 
0 0 0 
0 0 0 
0 0 0 
0 0 0 
0 0 0 
0 0 0 
0 0 0 
0 0 0 
0 0 0 
0.9099536 0.41470894 0.00091248343 
0.90566283 0.423997 0.0012257617 
0.90280926 0.43004054 0.000741704 
0.9018098 0.43213105 0.001342156 
0.90170264 0.43235594 0.00083363685 
0.90396017 0.4276154 0.0010991622 
0 0 0 
0 0 0 
0 0 0 
0 0 0 
0 0 0 
0 0 0 
0 0 0 
0 0 0 
0 0 0 
0 0 0 
0.91283256 0.4083329 0.0010088109 
0.9066179 0.4219518 0.0008704865 
0.90274554 0.4301733 0.0012647477 
0.90006936 0.43574587 0.000869642 
0.89890486 0.43814212 0.0012359513 
0.9008371 0.43415603 0.0010154584 
0 0 0 
0 0 0 
0 0 0 
0 0 0 
0 0 0 
0 0 0 
0 0 0 
0 0 0 
0 0 0 
0 0 0 
0 0 0 
0.9044393 0.42660114 0.0010748123 
0.9003731 0.4351176 0.0009990184 
0.89635956 0.44332635 0.0011820644 
0.8931934 0.44967142 0.0010800309 
0 0 0 
0 0 0 
0 0 0 
0 0 0 
0 0 0 
0 0 0 
0 0 0 
0 0 0 
0 0 0 
0 0 0 
0 0 0 
0 0 0 
0 0 0 
0 0 0 
0 0 0 
0 0 0 
0 0 0 
0 0 0 
0 0 0 
0 0 0 
0 0 0 
0 0 0 
0 0 0 
0 0 0 
0 0 0 
0 0 0 
0 0 0 
0 0 0 
0 0 0 
0 0 0 
0 0 0 
0 0 0 
0 0 0 
0 0 0 
0 0 0 
0 0 0 
0 0 0 
0 0 0 
0 0 0 
0 0 0 
# End: Data Text
# End: Segment
