# OOMMF: rectangular mesh v1.0
# Segment count: 1
# Begin: Segment
# Begin: Header
# Desc: Time (s) :  2.7365263431769254e-09
# Title: m
# meshtype: rectangular
# meshunit: m
# xbase: 2.5e-09
# ybase: 2.5e-09
# zbase: 2.25e-08
# xstepsize: 5e-09
# ystepsize: 5e-09
# zstepsize: 4.5e-08
# xmin: 0
# ymin: 0
# zmin: 0
# xmax: 8e-08
# ymax: 1.6e-07
# zmax: 4.5e-08
# xnodes: 16
# ynodes: 32
# znodes: 1
# ValueRangeMinMag: 1e-08
# ValueRangeMaxMag: 1
# valueunit: 
# valuemultiplier: 1
# End: Header
# Begin: Data Text
0 0 0 
0 0 0 
0 0 0 
0 0 0 
0 0 0 
0 0 0 
0 0 0 
0 0 0 
0 0 0 
0 0 0 
0 0 0 
0 0 0 
0 0 0 
0 0 0 
0 0 0 
0 0 0 
0 0 0 
0 0 0 
0 0 0 
0 0 0 
0 0 0 
0 0 0 
0 0 0 
0 0 0 
0 0 0 
0 0 0 
0 0 0 
0 0 0 
0 0 0 
0 0 0 
0 0 0 
0 0 0 
0 0 0 
0 0 0 
0 0 0 
0 0 0 
0 0 0 
0 0 0 
0 0 0 
0 0 0 
0 0 0 
0 0 0 
0 0 0 
0 0 0 
0 0 0 
0 0 0 
0 0 0 
0 0 0 
0 0 0 
0 0 0 
0 0 0 
0 0 0 
0 0 0 
0 0 0 
0 0 0 
0 0 0 
0 0 0 
0 0 0 
0 0 0 
0 0 0 
0 0 0 
0 0 0 
0 0 0 
0 0 0 
0 0 0 
0 0 0 
0 0 0 
0 0 0 
0 0 0 
0 0 0 
0 0 0 
0 0 0 
0 0 0 
0 0 0 
0 0 0 
0 0 0 
0 0 0 
0 0 0 
0 0 0 
0 0 0 
0 0 0 
0 0 0 
0 0 0 
0 0 0 
0 0 0 
0 0 0 
0 0 0 
0 0 0 
0 0 0 
0 0 0 
0 0 0 
0 0 0 
0 0 0 
0 0 0 
0 0 0 
0 0 0 
0 0 0 
0 0 0 
0 0 0 
0 0 0 
0 0 0 
0 0 0 
0.8999639 0.43581396 0.011454758 
0.9022257 0.43110678 0.011650524 
0.90504974 0.425146 0.011650826 
0 0 0 
0 0 0 
0 0 0 
0 0 0 
0 0 0 
0 0 0 
0 0 0 
0 0 0 
0 0 0 
0 0 0 
0 0 0 
0 0 0 
0.90583414 0.42348564 0.011155276 
0.90520877 0.42481261 0.011463453 
0.9057579 0.42363998 0.011478448 
0.9080393 0.41872182 0.011695066 
0.91219074 0.40960005 0.011656975 
0 0 0 
0 0 0 
0 0 0 
0 0 0 
0 0 0 
0 0 0 
0 0 0 
0 0 0 
0 0 0 
0 0 0 
0.9152557 0.40273556 0.010532287 
0.909218 0.41617224 0.011109258 
0.90700406 0.42097226 0.011225984 
0.90672225 0.42156887 0.0116024865 
0.9074132 0.42008114 0.011537025 
0.90904593 0.41653052 0.01174565 
0 0 0 
0 0 0 
0 0 0 
0 0 0 
0 0 0 
0 0 0 
0 0 0 
0 0 0 
0 0 0 
0 0 0 
0.91656387 0.39974752 0.0106074205 
0.9094762 0.4156092 0.011047304 
0.90687156 0.42125154 0.0114522185 
0.90582824 0.4234918 0.0114036165 
0.90594834 0.42322615 0.011719648 
0.9059323 0.4232613 0.01169037 
0 0 0 
0 0 0 
0 0 0 
0 0 0 
0 0 0 
0 0 0 
0 0 0 
0 0 0 
0 0 0 
0 0 0 
0 0 0 
0.9076293 0.41961733 0.011425369 
0.9054633 0.42427137 0.011412337 
0.9043707 0.426588 0.011679553 
0.9040884 0.42718735 0.011633462 
0.9048883 0.42548853 0.011696951 
0 0 0 
0 0 0 
0 0 0 
0 0 0 
0 0 0 
0 0 0 
0 0 0 
0 0 0 
0 0 0 
0 0 0 
0 0 0 
0.90750295 0.41989 0.011436055 
0.90473354 0.4258196 0.011613753 
0.9026031 0.43031597 0.011663866 
0.9002884 0.4351348 0.011764464 
0 0 0 
0 0 0 
0 0 0 
0 0 0 
0 0 0 
0 0 0 
0 0 0 
0 0 0 
0 0 0 
0 0 0 
0 0 0 
0 0 0 
0 0 0 
0 0 0 
0 0 0 
0 0 0 
0 0 0 
0 0 0 
0 0 0 
0 0 0 
0 0 0 
0 0 0 
0 0 0 
0 0 0 
0 0 0 
0 0 0 
0 0 0 
0 0 0 
0 0 0 
0 0 0 
0 0 0 
0 0 0 
0 0 0 
0 0 0 
0 0 0 
0 0 0 
0 0 0 
0 0 0 
0 0 0 
0 0 0 
0 0 0 
0 0 0 
0 0 0 
0 0 0 
0 0 0 
0.8888175 0.45810497 0.011974402 
0.8903399 0.45514134 0.01188654 
0.89213794 0.45160198 0.012062637 
0 0 0 
0 0 0 
0 0 0 
0 0 0 
0 0 0 
0 0 0 
0 0 0 
0 0 0 
0 0 0 
0 0 0 
0 0 0 
0 0 0 
0.90119123 0.43326664 0.01159158 
0.8981294 0.43958116 0.011498895 
0.89777166 0.44029477 0.012112856 
0.89948153 0.43680355 0.011644565 
0.904808 0.4256557 0.011821631 
0 0 0 
0 0 0 
0 0 0 
0 0 0 
0 0 0 
0 0 0 
0 0 0 
0 0 0 
0 0 0 
0 0 0 
0.91377836 0.40606767 0.010867647 
0.90707207 0.42083046 0.0110460315 
0.90339833 0.4286369 0.011915846 
0.902088 0.43140665 0.011212651 
0.90232617 0.43088707 0.011998341 
0.90464765 0.42600515 0.011507563 
0 0 0 
0 0 0 
0 0 0 
0 0 0 
0 0 0 
0 0 0 
0 0 0 
0 0 0 
0 0 0 
0 0 0 
0.91626805 0.40042198 0.010727683 
0.91009337 0.41424444 0.011480728 
0.9063582 0.42236736 0.010987426 
0.9040489 0.42726117 0.011978923 
0.904046 0.42729023 0.011139183 
0.90651566 0.42201513 0.011518613 
0.916717 0.39939564 0.010634071 
0 0 0 
0 0 0 
0 0 0 
0 0 0 
0 0 0 
0 0 0 
0 0 0 
0 0 0 
0 0 0 
0.9189383 0.3942513 0.010880931 
0.9122901 0.40939668 0.011013303 
0.9074837 0.4199231 0.0117493095 
0.90420926 0.426944 0.011151591 
0.90306824 0.42933542 0.011792964 
0.9025949 0.43034276 0.011296066 
0 0 0 
0 0 0 
0 0 0 
0 0 0 
0 0 0 
0 0 0 
0 0 0 
0 0 0 
0 0 0 
0 0 0 
0 0 0 
0.9118978 0.41025755 0.011459703 
0.90767986 0.41950864 0.0113910865 
0.90116 0.43332565 0.011819708 
0.9007739 0.43413854 0.011410819 
0.8990184 0.4377639 0.011340071 
0 0 0 
0 0 0 
0 0 0 
0 0 0 
0 0 0 
0 0 0 
0 0 0 
0 0 0 
0 0 0 
0 0 0 
0 0 0 
0 0 0 
0 0 0 
0.88958734 0.45661256 0.011807766 
0 0 0 
0 0 0 
0 0 0 
0 0 0 
0 0 0 
0 0 0 
0 0 0 
0 0 0 
0 0 0 
0 0 0 
0 0 0 
0 0 0 
0 0 0 
0 0 0 
0 0 0 
0 0 0 
0 0 0 
0 0 0 
0 0 0 
0 0 0 
0 0 0 
0 0 0 
0 0 0 
0 0 0 
0 0 0 
0 0 0 
0 0 0 
0 0 0 
0 0 0 
0 0 0 
0 0 0 
0 0 0 
0 0 0 
0 0 0 
0 0 0 
0 0 0 
0 0 0 
0 0 0 
0 0 0 
0 0 0 
0 0 0 
0 0 0 
0 0 0 
0 0 0 
0 0 0 
0 0 0 
0 0 0 
0 0 0 
0 0 0 
0 0 0 
0 0 0 
0 0 0 
0 0 0 
0 0 0 
0 0 0 
0 0 0 
0 0 0 
0 0 0 
0 0 0 
0 0 0 
0.9031319 0.42933145 0.0052227643 
0.9051504 0.4250592 0.0052342825 
0.907726 0.41952938 0.0053563425 
0.91063637 0.4131753 0.005257373 
0 0 0 
0 0 0 
0 0 0 
0 0 0 
0 0 0 
0 0 0 
0 0 0 
0 0 0 
0 0 0 
0 0 0 
0 0 0 
0.91204417 0.4100607 0.005072025 
0.90935117 0.41599816 0.0051011704 
0.9093675 0.41595885 0.0053915116 
0.91046035 0.41356444 0.005140844 
0.913121 0.40765384 0.0053345636 
0.9184515 0.39550066 0.0051092133 
0 0 0 
0 0 0 
0 0 0 
0 0 0 
0 0 0 
0 0 0 
0 0 0 
0 0 0 
0 0 0 
0 0 0 
0.91569436 0.40184367 0.0050575994 
0.9129977 0.4079299 0.0053281127 
0.9118007 0.41060212 0.0050548343 
0.9114746 0.41132075 0.005429191 
0.91282713 0.40831468 0.0050847465 
0.9162116 0.40066108 0.005188799 
0 0 0 
0 0 0 
0 0 0 
0 0 0 
0 0 0 
0 0 0 
0 0 0 
0 0 0 
0 0 0 
0 0 0 
0.9193155 0.3934875 0.0051715374 
0.9152694 0.4028107 0.005072097 
0.91267973 0.40863964 0.0054237223 
0.91153806 0.41118467 0.005058263 
0.911422 0.4114383 0.005340343 
0.91330665 0.40724096 0.0050732186 
0 0 0 
0 0 0 
0 0 0 
0 0 0 
0 0 0 
0 0 0 
0 0 0 
0 0 0 
0 0 0 
0 0 0 
0.92218393 0.3867181 0.0050925617 
0.91640526 0.4002165 0.005321931 
0.9125685 0.4088915 0.0051338975 
0.90997756 0.41462255 0.0053928914 
0.90857065 0.41770014 0.005110381 
0.9101697 0.4142043 0.005087935 
0 0 0 
0 0 0 
0 0 0 
0 0 0 
0 0 0 
0 0 0 
0 0 0 
0 0 0 
0 0 0 
0 0 0 
0 0 0 
0.91455036 0.40443805 0.0052473587 
0.91053796 0.413391 0.005349457 
0.906443 0.42229575 0.0052345125 
0.90321153 0.429164 0.0052277264 
0 0 0 
0 0 0 
0 0 0 
0 0 0 
0 0 0 
0 0 0 
0 0 0 
0 0 0 
0 0 0 
0 0 0 
0 0 0 
0 0 0 
0 0 0 
0 0 0 
0 0 0 
0 0 0 
0 0 0 
0 0 0 
0 0 0 
0 0 0 
0 0 0 
0 0 0 
0 0 0 
0 0 0 
0 0 0 
0 0 0 
0 0 0 
0 0 0 
0 0 0 
0 0 0 
0 0 0 
0 0 0 
0 0 0 
0 0 0 
0 0 0 
0 0 0 
0 0 0 
0 0 0 
0 0 0 
0 0 0 
# End: Data Text
# End: Segment
