# OOMMF: rectangular mesh v1.0
# Segment count: 1
# Begin: Segment
# Begin: Header
# Desc: Time (s) :  1.4059837506360206e-08
# Title: m
# meshtype: rectangular
# meshunit: m
# xbase: 2.5e-09
# ybase: 2.5e-09
# zbase: 2.25e-08
# xstepsize: 5e-09
# ystepsize: 5e-09
# zstepsize: 4.5e-08
# xmin: 0
# ymin: 0
# zmin: 0
# xmax: 8e-08
# ymax: 1.6e-07
# zmax: 4.5e-08
# xnodes: 16
# ynodes: 32
# znodes: 1
# ValueRangeMinMag: 1e-08
# ValueRangeMaxMag: 1
# valueunit: 
# valuemultiplier: 1
# End: Header
# Begin: Data Text
0 0 0 
0 0 0 
0 0 0 
0 0 0 
0 0 0 
0 0 0 
0 0 0 
0 0 0 
0 0 0 
0 0 0 
0 0 0 
0 0 0 
0 0 0 
0 0 0 
0 0 0 
0 0 0 
0 0 0 
0 0 0 
0 0 0 
0 0 0 
0 0 0 
0 0 0 
0 0 0 
0 0 0 
0 0 0 
0 0 0 
0 0 0 
0 0 0 
0 0 0 
0 0 0 
0 0 0 
0 0 0 
0 0 0 
0 0 0 
0 0 0 
0 0 0 
0 0 0 
0 0 0 
0 0 0 
0 0 0 
0 0 0 
0 0 0 
0 0 0 
0 0 0 
0 0 0 
0 0 0 
0 0 0 
0 0 0 
0 0 0 
0 0 0 
0 0 0 
0 0 0 
0 0 0 
0 0 0 
0 0 0 
0 0 0 
0 0 0 
0 0 0 
0 0 0 
0 0 0 
0 0 0 
0 0 0 
0 0 0 
0 0 0 
0 0 0 
0 0 0 
0 0 0 
0 0 0 
0 0 0 
0 0 0 
0 0 0 
0 0 0 
0 0 0 
0 0 0 
0 0 0 
0 0 0 
0 0 0 
0 0 0 
0 0 0 
0 0 0 
0 0 0 
0 0 0 
0 0 0 
0 0 0 
0 0 0 
0 0 0 
0 0 0 
0 0 0 
0 0 0 
0 0 0 
0 0 0 
0 0 0 
0 0 0 
0 0 0 
0 0 0 
0 0 0 
0 0 0 
0 0 0 
0 0 0 
0 0 0 
0 0 0 
0 0 0 
0.8972663 0.4399804 0.03647602 
0.89945287 0.43543708 0.037136372 
0.9022714 0.42954046 0.037436184 
0 0 0 
0 0 0 
0 0 0 
0 0 0 
0 0 0 
0 0 0 
0 0 0 
0 0 0 
0 0 0 
0 0 0 
0 0 0 
0 0 0 
0.9033459 0.42744488 0.035456732 
0.9025641 0.42902467 0.03627492 
0.9031158 0.42780516 0.036942653 
0.9052859 0.4231508 0.03742783 
0.909482 0.41402796 0.037728164 
0 0 0 
0 0 0 
0 0 0 
0 0 0 
0 0 0 
0 0 0 
0 0 0 
0 0 0 
0 0 0 
0 0 0 
0.9130153 0.4065458 0.033519182 
0.9067345 0.42023668 0.0351243 
0.9044805 0.42498642 0.036078513 
0.9039986 0.42595175 0.036764037 
0.90474534 0.4243148 0.037322782 
0.9062891 0.42096758 0.03776927 
0 0 0 
0 0 0 
0 0 0 
0 0 0 
0 0 0 
0 0 0 
0 0 0 
0 0 0 
0 0 0 
0 0 0 
0.9142947 0.40364328 0.033724733 
0.9070199 0.41959843 0.035385717 
0.90420675 0.4255577 0.036206078 
0.90320575 0.42762652 0.036809493 
0.90316886 0.42766216 0.037299994 
0.9031927 0.42758164 0.037641533 
0 0 0 
0 0 0 
0 0 0 
0 0 0 
0 0 0 
0 0 0 
0 0 0 
0 0 0 
0 0 0 
0 0 0 
0 0 0 
0.9049761 0.4239029 0.036394406 
0.90281975 0.42845294 0.0366693 
0.9015893 0.43100283 0.037059456 
0.9013549 0.43146485 0.037384618 
0.902139 0.42981985 0.03741661 
0 0 0 
0 0 0 
0 0 0 
0 0 0 
0 0 0 
0 0 0 
0 0 0 
0 0 0 
0 0 0 
0 0 0 
0 0 0 
0.9047948 0.42426834 0.036645386 
0.90196544 0.43021637 0.03704335 
0.89983034 0.43464082 0.037321508 
0.8974529 0.43951574 0.037473734 
0 0 0 
0 0 0 
0 0 0 
0 0 0 
0 0 0 
0 0 0 
0 0 0 
0 0 0 
0 0 0 
0 0 0 
0 0 0 
0 0 0 
0 0 0 
0 0 0 
0 0 0 
0 0 0 
0 0 0 
0 0 0 
0 0 0 
0 0 0 
0 0 0 
0 0 0 
0 0 0 
0 0 0 
0 0 0 
0 0 0 
0 0 0 
0 0 0 
0 0 0 
0 0 0 
0 0 0 
0 0 0 
0 0 0 
0 0 0 
0 0 0 
0 0 0 
0 0 0 
0 0 0 
0 0 0 
0 0 0 
0 0 0 
0 0 0 
0 0 0 
0 0 0 
0 0 0 
0.8828709 0.4682464 0.03583665 
0.8842539 0.46561152 0.03606994 
0.88612413 0.4620317 0.036205236 
0 0 0 
0 0 0 
0 0 0 
0 0 0 
0 0 0 
0 0 0 
0 0 0 
0 0 0 
0 0 0 
0 0 0 
0 0 0 
0 0 0 
0.8958673 0.4429469 0.034925535 
0.89236945 0.44990522 0.035527144 
0.89227974 0.45006642 0.03573711 
0.8936685 0.44729003 0.03589387 
0.8993356 0.43580106 0.035677843 
0 0 0 
0 0 0 
0 0 0 
0 0 0 
0 0 0 
0 0 0 
0 0 0 
0 0 0 
0 0 0 
0 0 0 
0.9089933 0.41548273 0.033246648 
0.9017441 0.43089038 0.034511812 
0.89827496 0.43803564 0.035028767 
0.8963674 0.44190264 0.0353218 
0.8971087 0.44039777 0.035298925 
0.899207 0.43609902 0.035277955 
0 0 0 
0 0 0 
0 0 0 
0 0 0 
0 0 0 
0 0 0 
0 0 0 
0 0 0 
0 0 0 
0 0 0 
0.9113994 0.41016343 0.033420574 
0.9051673 0.42366287 0.034379154 
0.9008378 0.43275312 0.034873202 
0.8990446 0.43646288 0.034914307 
0.89855754 0.43747 0.03484715 
0.901563 0.4312911 0.03423884 
0.9121711 0.40853158 0.032341808 
0 0 0 
0 0 0 
0 0 0 
0 0 0 
0 0 0 
0 0 0 
0 0 0 
0 0 0 
0 0 0 
0.9141709 0.403938 0.033551525 
0.90707153 0.41955158 0.03460843 
0.90247923 0.42931885 0.0348803 
0.8987091 0.43714848 0.03497434 
0.8980471 0.43852887 0.034696054 
0.89741504 0.43984982 0.03432628 
0 0 0 
0 0 0 
0 0 0 
0 0 0 
0 0 0 
0 0 0 
0 0 0 
0 0 0 
0 0 0 
0 0 0 
0 0 0 
0.9067287 0.42025098 0.035103455 
0.9023441 0.42957363 0.035237238 
0.8959218 0.44281858 0.03515473 
0.8954932 0.44372275 0.034671273 
0.8939604 0.4468676 0.03382389 
0 0 0 
0 0 0 
0 0 0 
0 0 0 
0 0 0 
0 0 0 
0 0 0 
0 0 0 
0 0 0 
0 0 0 
0 0 0 
0 0 0 
0 0 0 
0.8837492 0.46660888 0.035548806 
0 0 0 
0 0 0 
0 0 0 
0 0 0 
0 0 0 
0 0 0 
0 0 0 
0 0 0 
0 0 0 
0 0 0 
0 0 0 
0 0 0 
0 0 0 
0 0 0 
0 0 0 
0 0 0 
0 0 0 
0 0 0 
0 0 0 
0 0 0 
0 0 0 
0 0 0 
0 0 0 
0 0 0 
0 0 0 
0 0 0 
0 0 0 
0 0 0 
0 0 0 
0 0 0 
0 0 0 
0 0 0 
0 0 0 
0 0 0 
0 0 0 
0 0 0 
0 0 0 
0 0 0 
0 0 0 
0 0 0 
0 0 0 
0 0 0 
0 0 0 
0 0 0 
0 0 0 
0 0 0 
0 0 0 
0 0 0 
0 0 0 
0 0 0 
0 0 0 
0 0 0 
0 0 0 
0 0 0 
0 0 0 
0 0 0 
0 0 0 
0 0 0 
0 0 0 
0 0 0 
0.90885013 0.4165855 0.021166185 
0.91085255 0.41216043 0.02171486 
0.91356885 0.4061019 0.021757348 
0.91640437 0.3996566 0.021854836 
0 0 0 
0 0 0 
0 0 0 
0 0 0 
0 0 0 
0 0 0 
0 0 0 
0 0 0 
0 0 0 
0 0 0 
0 0 0 
0.9172968 0.39767054 0.020610364 
0.91471606 0.40352857 0.021428963 
0.91507536 0.40271944 0.021309875 
0.9159221 0.40075734 0.021918979 
0.9187615 0.3942312 0.021427222 
0.92374575 0.38241825 0.021218026 
0 0 0 
0 0 0 
0 0 0 
0 0 0 
0 0 0 
0 0 0 
0 0 0 
0 0 0 
0 0 0 
0 0 0 
0.9208487 0.38935074 0.021064576 
0.9185214 0.39480832 0.021089269 
0.91709113 0.3980787 0.02184545 
0.9171748 0.39792302 0.021156888 
0.9181388 0.3956674 0.021644128 
0.9215404 0.38771388 0.021008585 
0 0 0 
0 0 0 
0 0 0 
0 0 0 
0 0 0 
0 0 0 
0 0 0 
0 0 0 
0 0 0 
0 0 0 
0.9245531 0.3804689 0.021094311 
0.920513 0.3901096 0.021692868 
0.9183415 0.3952234 0.021151595 
0.9168303 0.39868256 0.021782832 
0.91698366 0.39837292 0.020979738 
0.9185189 0.3948225 0.020934304 
0 0 0 
0 0 0 
0 0 0 
0 0 0 
0 0 0 
0 0 0 
0 0 0 
0 0 0 
0 0 0 
0 0 0 
0.9273592 0.3735673 0.021268606 
0.9219389 0.38674277 0.021418232 
0.91796035 0.39606997 0.021852108 
0.91565526 0.40140587 0.021187225 
0.91394246 0.405286 0.021272361 
0.9154602 0.40188882 0.02044761 
0 0 0 
0 0 0 
0 0 0 
0 0 0 
0 0 0 
0 0 0 
0 0 0 
0 0 0 
0 0 0 
0 0 0 
0 0 0 
0.9201868 0.3908726 0.021790318 
0.91628313 0.3999458 0.021647511 
0.91209185 0.40941885 0.021556456 
0.9089095 0.41646558 0.02097601 
0 0 0 
0 0 0 
0 0 0 
0 0 0 
0 0 0 
0 0 0 
0 0 0 
0 0 0 
0 0 0 
0 0 0 
0 0 0 
0 0 0 
0 0 0 
0 0 0 
0 0 0 
0 0 0 
0 0 0 
0 0 0 
0 0 0 
0 0 0 
0 0 0 
0 0 0 
0 0 0 
0 0 0 
0 0 0 
0 0 0 
0 0 0 
0 0 0 
0 0 0 
0 0 0 
0 0 0 
0 0 0 
0 0 0 
0 0 0 
0 0 0 
0 0 0 
0 0 0 
0 0 0 
0 0 0 
0 0 0 
# End: Data Text
# End: Segment
