# OOMMF: rectangular mesh v1.0
# Segment count: 1
# Begin: Segment
# Begin: Header
# Desc: Time (s) :  4.545256739552992e-09
# Title: m
# meshtype: rectangular
# meshunit: m
# xbase: 2.5e-09
# ybase: 2.5e-09
# zbase: 2.25e-08
# xstepsize: 5e-09
# ystepsize: 5e-09
# zstepsize: 4.5e-08
# xmin: 0
# ymin: 0
# zmin: 0
# xmax: 8e-08
# ymax: 1.6e-07
# zmax: 4.5e-08
# xnodes: 16
# ynodes: 32
# znodes: 1
# ValueRangeMinMag: 1e-08
# ValueRangeMaxMag: 1
# valueunit: 
# valuemultiplier: 1
# End: Header
# Begin: Data Text
0 0 0 
0 0 0 
0 0 0 
0 0 0 
0 0 0 
0 0 0 
0 0 0 
0 0 0 
0 0 0 
0 0 0 
0 0 0 
0 0 0 
0 0 0 
0 0 0 
0 0 0 
0 0 0 
0 0 0 
0 0 0 
0 0 0 
0 0 0 
0 0 0 
0 0 0 
0 0 0 
0 0 0 
0 0 0 
0 0 0 
0 0 0 
0 0 0 
0 0 0 
0 0 0 
0 0 0 
0 0 0 
0 0 0 
0 0 0 
0 0 0 
0 0 0 
0 0 0 
0 0 0 
0 0 0 
0 0 0 
0 0 0 
0 0 0 
0 0 0 
0 0 0 
0 0 0 
0 0 0 
0 0 0 
0 0 0 
0 0 0 
0 0 0 
0 0 0 
0 0 0 
0 0 0 
0 0 0 
0 0 0 
0 0 0 
0 0 0 
0 0 0 
0 0 0 
0 0 0 
0 0 0 
0 0 0 
0 0 0 
0 0 0 
0 0 0 
0 0 0 
0 0 0 
0 0 0 
0 0 0 
0 0 0 
0 0 0 
0 0 0 
0 0 0 
0 0 0 
0 0 0 
0 0 0 
0 0 0 
0 0 0 
0 0 0 
0 0 0 
0 0 0 
0 0 0 
0 0 0 
0 0 0 
0 0 0 
0 0 0 
0 0 0 
0 0 0 
0 0 0 
0 0 0 
0 0 0 
0 0 0 
0 0 0 
0 0 0 
0 0 0 
0 0 0 
0 0 0 
0 0 0 
0 0 0 
0 0 0 
0 0 0 
0 0 0 
0.8999614 0.43581986 0.011419034 
0.90219724 0.4311676 0.011605832 
0.90504575 0.4251558 0.011612783 
0 0 0 
0 0 0 
0 0 0 
0 0 0 
0 0 0 
0 0 0 
0 0 0 
0 0 0 
0 0 0 
0 0 0 
0 0 0 
0 0 0 
0.90583694 0.42348054 0.011122523 
0.90515745 0.4249232 0.01141129 
0.9057913 0.42356938 0.011453423 
0.9079923 0.41882512 0.011642534 
0.91218716 0.40960902 0.01161746 
0 0 0 
0 0 0 
0 0 0 
0 0 0 
0 0 0 
0 0 0 
0 0 0 
0 0 0 
0 0 0 
0 0 0 
0.9152536 0.40274137 0.010501604 
0.9091715 0.416275 0.011059907 
0.90705234 0.42086878 0.011207282 
0.9066426 0.4217417 0.011540589 
0.90745056 0.42000118 0.011511746 
0.9090152 0.41659886 0.011698211 
0 0 0 
0 0 0 
0 0 0 
0 0 0 
0 0 0 
0 0 0 
0 0 0 
0 0 0 
0 0 0 
0 0 0 
0.9165454 0.39979103 0.010571074 
0.90950155 0.41555437 0.011022491 
0.90679663 0.4214143 0.01139271 
0.9058837 0.42337343 0.011387065 
0.9058838 0.42336586 0.011662402 
0.90593725 0.42325163 0.011654827 
0 0 0 
0 0 0 
0 0 0 
0 0 0 
0 0 0 
0 0 0 
0 0 0 
0 0 0 
0 0 0 
0 0 0 
0 0 0 
0.90759665 0.41968903 0.011379323 
0.9054941 0.42420623 0.011387958 
0.9043077 0.42672297 0.01162419 
0.9041108 0.42714053 0.011604812 
0.9048648 0.42553967 0.011652916 
0 0 0 
0 0 0 
0 0 0 
0 0 0 
0 0 0 
0 0 0 
0 0 0 
0 0 0 
0 0 0 
0 0 0 
0 0 0 
0.9074964 0.41990522 0.01139812 
0.9047046 0.42588243 0.011568672 
0.9026066 0.4303094 0.011629792 
0.9002647 0.43518516 0.0117197875 
0 0 0 
0 0 0 
0 0 0 
0 0 0 
0 0 0 
0 0 0 
0 0 0 
0 0 0 
0 0 0 
0 0 0 
0 0 0 
0 0 0 
0 0 0 
0 0 0 
0 0 0 
0 0 0 
0 0 0 
0 0 0 
0 0 0 
0 0 0 
0 0 0 
0 0 0 
0 0 0 
0 0 0 
0 0 0 
0 0 0 
0 0 0 
0 0 0 
0 0 0 
0 0 0 
0 0 0 
0 0 0 
0 0 0 
0 0 0 
0 0 0 
0 0 0 
0 0 0 
0 0 0 
0 0 0 
0 0 0 
0 0 0 
0 0 0 
0 0 0 
0 0 0 
0 0 0 
0.8887868 0.45816877 0.011812297 
0.8903224 0.4551725 0.0120044025 
0.8921081 0.45166516 0.011908939 
0 0 0 
0 0 0 
0 0 0 
0 0 0 
0 0 0 
0 0 0 
0 0 0 
0 0 0 
0 0 0 
0 0 0 
0 0 0 
0 0 0 
0.90116227 0.4333326 0.0113802785 
0.898126 0.4395772 0.011896206 
0.8977245 0.4404062 0.01153802 
0.8994758 0.4368061 0.011994876 
0.9047804 0.4257189 0.0116573945 
0 0 0 
0 0 0 
0 0 0 
0 0 0 
0 0 0 
0 0 0 
0 0 0 
0 0 0 
0 0 0 
0 0 0 
0.91375464 0.40612525 0.0107114455 
0.9070703 0.42082363 0.011446092 
0.90334487 0.42877015 0.011145049 
0.9021004 0.43136057 0.011964278 
0.9022768 0.43100858 0.011331061 
0.90463674 0.42602283 0.011707387 
0 0 0 
0 0 0 
0 0 0 
0 0 0 
0 0 0 
0 0 0 
0 0 0 
0 0 0 
0 0 0 
0 0 0 
0.91625583 0.40044677 0.010853418 
0.9100506 0.41435352 0.010910939 
0.90637094 0.42231956 0.011739504 
0.9039898 0.42741102 0.011066097 
0.9040546 0.42725462 0.0117860865 
0.9064799 0.4221024 0.011125235 
0.9167012 0.39943153 0.010649985 
0 0 0 
0 0 0 
0 0 0 
0 0 0 
0 0 0 
0 0 0 
0 0 0 
0 0 0 
0 0 0 
0.91891474 0.39431018 0.010735224 
0.91228604 0.40939608 0.011366801 
0.9074358 0.42004475 0.011083191 
0.90421796 0.42690828 0.011798303 
0.90302384 0.429444 0.011220241 
0.90258384 0.43036148 0.0114706205 
0 0 0 
0 0 0 
0 0 0 
0 0 0 
0 0 0 
0 0 0 
0 0 0 
0 0 0 
0 0 0 
0 0 0 
0 0 0 
0.9118721 0.41031894 0.011296326 
0.90766907 0.41952646 0.011592791 
0.90112233 0.43341458 0.011422602 
0.90076196 0.43415874 0.011584844 
0.8989943 0.43781683 0.011216852 
0 0 0 
0 0 0 
0 0 0 
0 0 0 
0 0 0 
0 0 0 
0 0 0 
0 0 0 
0 0 0 
0 0 0 
0 0 0 
0 0 0 
0 0 0 
0.8895654 0.45665514 0.011816672 
0 0 0 
0 0 0 
0 0 0 
0 0 0 
0 0 0 
0 0 0 
0 0 0 
0 0 0 
0 0 0 
0 0 0 
0 0 0 
0 0 0 
0 0 0 
0 0 0 
0 0 0 
0 0 0 
0 0 0 
0 0 0 
0 0 0 
0 0 0 
0 0 0 
0 0 0 
0 0 0 
0 0 0 
0 0 0 
0 0 0 
0 0 0 
0 0 0 
0 0 0 
0 0 0 
0 0 0 
0 0 0 
0 0 0 
0 0 0 
0 0 0 
0 0 0 
0 0 0 
0 0 0 
0 0 0 
0 0 0 
0 0 0 
0 0 0 
0 0 0 
0 0 0 
0 0 0 
0 0 0 
0 0 0 
0 0 0 
0 0 0 
0 0 0 
0 0 0 
0 0 0 
0 0 0 
0 0 0 
0 0 0 
0 0 0 
0 0 0 
0 0 0 
0 0 0 
0 0 0 
0.90311253 0.42937347 0.0051235105 
0.90511054 0.4251431 0.005310288 
0.9077116 0.41956222 0.0052049244 
0.91060215 0.4132504 0.0052814144 
0 0 0 
0 0 0 
0 0 0 
0 0 0 
0 0 0 
0 0 0 
0 0 0 
0 0 0 
0 0 0 
0 0 0 
0 0 0 
0.9120273 0.4100995 0.0049748556 
0.9093001 0.41610733 0.005291938 
0.9093785 0.41593918 0.005028847 
0.91039807 0.41369784 0.005428682 
0.9131199 0.40765977 0.005072849 
0.91842043 0.39557242 0.005134442 
0 0 0 
0 0 0 
0 0 0 
0 0 0 
0 0 0 
0 0 0 
0 0 0 
0 0 0 
0 0 0 
0 0 0 
0.9156581 0.40192518 0.005134609 
0.9130088 0.40790963 0.0049661505 
0.9117247 0.41076553 0.00547228 
0.9114997 0.41127115 0.004938143 
0.91276586 0.4084479 0.0053743925 
0.9162001 0.4006895 0.0050401194 
0 0 0 
0 0 0 
0 0 0 
0 0 0 
0 0 0 
0 0 0 
0 0 0 
0 0 0 
0 0 0 
0 0 0 
0.91930354 0.39351735 0.0050230557 
0.9152092 0.40294355 0.0053606355 
0.9127052 0.408589 0.0049318653 
0.91146255 0.4113467 0.005476264 
0.9114337 0.41141686 0.0049776603 
0.91327065 0.40732092 0.0051518865 
0 0 0 
0 0 0 
0 0 0 
0 0 0 
0 0 0 
0 0 0 
0 0 0 
0 0 0 
0 0 0 
0 0 0 
0.9221533 0.38679072 0.0051171924 
0.91640496 0.40022036 0.0050589466 
0.9125076 0.409024 0.0054221964 
0.90998906 0.41460174 0.005029241 
0.9085205 0.41780666 0.0053018015 
0.9101526 0.41424307 0.0049910056 
0 0 0 
0 0 0 
0 0 0 
0 0 0 
0 0 0 
0 0 0 
0 0 0 
0 0 0 
0 0 0 
0 0 0 
0 0 0 
0.9145182 0.40451056 0.0052700164 
0.91052526 0.41342092 0.00519734 
0.90640444 0.42237753 0.0053112907 
0.9031939 0.42920223 0.005128782 
0 0 0 
0 0 0 
0 0 0 
0 0 0 
0 0 0 
0 0 0 
0 0 0 
0 0 0 
0 0 0 
0 0 0 
0 0 0 
0 0 0 
0 0 0 
0 0 0 
0 0 0 
0 0 0 
0 0 0 
0 0 0 
0 0 0 
0 0 0 
0 0 0 
0 0 0 
0 0 0 
0 0 0 
0 0 0 
0 0 0 
0 0 0 
0 0 0 
0 0 0 
0 0 0 
0 0 0 
0 0 0 
0 0 0 
0 0 0 
0 0 0 
0 0 0 
0 0 0 
0 0 0 
0 0 0 
0 0 0 
# End: Data Text
# End: Segment
