# OOMMF: rectangular mesh v1.0
# Segment count: 1
# Begin: Segment
# Begin: Header
# Desc: Time (s) :  1.4780843658817624e-08
# Title: m
# meshtype: rectangular
# meshunit: m
# xbase: 2.5e-09
# ybase: 2.5e-09
# zbase: 2.25e-08
# xstepsize: 5e-09
# ystepsize: 5e-09
# zstepsize: 4.5e-08
# xmin: 0
# ymin: 0
# zmin: 0
# xmax: 8e-08
# ymax: 1.6e-07
# zmax: 4.5e-08
# xnodes: 16
# ynodes: 32
# znodes: 1
# ValueRangeMinMag: 1e-08
# ValueRangeMaxMag: 1
# valueunit: 
# valuemultiplier: 1
# End: Header
# Begin: Data Text
0 0 0 
0 0 0 
0 0 0 
0 0 0 
0 0 0 
0 0 0 
0 0 0 
0 0 0 
0 0 0 
0 0 0 
0 0 0 
0 0 0 
0 0 0 
0 0 0 
0 0 0 
0 0 0 
0 0 0 
0 0 0 
0 0 0 
0 0 0 
0 0 0 
0 0 0 
0 0 0 
0 0 0 
0 0 0 
0 0 0 
0 0 0 
0 0 0 
0 0 0 
0 0 0 
0 0 0 
0 0 0 
0 0 0 
0 0 0 
0 0 0 
0 0 0 
0 0 0 
0 0 0 
0 0 0 
0 0 0 
0 0 0 
0 0 0 
0 0 0 
0 0 0 
0 0 0 
0 0 0 
0 0 0 
0 0 0 
0 0 0 
0 0 0 
0 0 0 
0 0 0 
0 0 0 
0 0 0 
0 0 0 
0 0 0 
0 0 0 
0 0 0 
0 0 0 
0 0 0 
0 0 0 
0 0 0 
0 0 0 
0 0 0 
0 0 0 
0 0 0 
0 0 0 
0 0 0 
0 0 0 
0 0 0 
0 0 0 
0 0 0 
0 0 0 
0 0 0 
0 0 0 
0 0 0 
0 0 0 
0 0 0 
0 0 0 
0 0 0 
0 0 0 
0 0 0 
0 0 0 
0 0 0 
0 0 0 
0 0 0 
0 0 0 
0 0 0 
0 0 0 
0 0 0 
0 0 0 
0 0 0 
0 0 0 
0 0 0 
0 0 0 
0 0 0 
0 0 0 
0 0 0 
0 0 0 
0 0 0 
0 0 0 
0 0 0 
0.89925337 0.43602625 0.034993075 
0.90147316 0.4313668 0.035620574 
0.9043119 0.42535985 0.03590262 
0 0 0 
0 0 0 
0 0 0 
0 0 0 
0 0 0 
0 0 0 
0 0 0 
0 0 0 
0 0 0 
0 0 0 
0 0 0 
0 0 0 
0.90516627 0.42369416 0.034019314 
0.90446675 0.42512235 0.034800544 
0.90507567 0.42377168 0.03543366 
0.9072725 0.41900855 0.035893276 
0.91146046 0.4097944 0.03617323 
0 0 0 
0 0 0 
0 0 0 
0 0 0 
0 0 0 
0 0 0 
0 0 0 
0 0 0 
0 0 0 
0 0 0 
0.9146457 0.40297538 0.03215741 
0.9085172 0.41648623 0.033700332 
0.9063635 0.42107865 0.03461282 
0.90594804 0.4219176 0.035266865 
0.90673435 0.42018035 0.035796214 
0.9082944 0.41676065 0.036220655 
0 0 0 
0 0 0 
0 0 0 
0 0 0 
0 0 0 
0 0 0 
0 0 0 
0 0 0 
0 0 0 
0 0 0 
0.91593313 0.4000247 0.032354735 
0.9088342 0.41577375 0.033952564 
0.90611714 0.421598 0.03474075 
0.905182 0.42355463 0.035314962 
0.905184 0.42351103 0.035783328 
0.9052246 0.4233966 0.03610619 
0 0 0 
0 0 0 
0 0 0 
0 0 0 
0 0 0 
0 0 0 
0 0 0 
0 0 0 
0 0 0 
0 0 0 
0 0 0 
0.90690106 0.41989374 0.034924597 
0.90479326 0.4243949 0.035188224 
0.90361434 0.42686844 0.035562124 
0.9034089 0.42727706 0.035870846 
0.90416986 0.42566246 0.035896365 
0 0 0 
0 0 0 
0 0 0 
0 0 0 
0 0 0 
0 0 0 
0 0 0 
0 0 0 
0 0 0 
0 0 0 
0 0 0 
0.90678763 0.4201186 0.035165787 
0.90399814 0.42605594 0.035550244 
0.9019048 0.43044743 0.035818227 
0.89956975 0.435294 0.03596402 
0 0 0 
0 0 0 
0 0 0 
0 0 0 
0 0 0 
0 0 0 
0 0 0 
0 0 0 
0 0 0 
0 0 0 
0 0 0 
0 0 0 
0 0 0 
0 0 0 
0 0 0 
0 0 0 
0 0 0 
0 0 0 
0 0 0 
0 0 0 
0 0 0 
0 0 0 
0 0 0 
0 0 0 
0 0 0 
0 0 0 
0 0 0 
0 0 0 
0 0 0 
0 0 0 
0 0 0 
0 0 0 
0 0 0 
0 0 0 
0 0 0 
0 0 0 
0 0 0 
0 0 0 
0 0 0 
0 0 0 
0 0 0 
0 0 0 
0 0 0 
0 0 0 
0 0 0 
0.89173853 0.45109943 0.036217432 
0.8932451 0.44807822 0.036595456 
0.89508647 0.44438952 0.03658202 
0 0 0 
0 0 0 
0 0 0 
0 0 0 
0 0 0 
0 0 0 
0 0 0 
0 0 0 
0 0 0 
0 0 0 
0 0 0 
0 0 0 
0.9037789 0.42654762 0.0352253 
0.9007638 0.43280092 0.036165714 
0.9005471 0.43327644 0.03586814 
0.9021548 0.42986548 0.036504176 
0.9074441 0.41862828 0.035995584 
0 0 0 
0 0 0 
0 0 0 
0 0 0 
0 0 0 
0 0 0 
0 0 0 
0 0 0 
0 0 0 
0 0 0 
0.91608435 0.39958236 0.033515755 
0.9094904 0.4142398 0.035107356 
0.90603375 0.42175323 0.035031408 
0.9046034 0.42472044 0.036129363 
0.9049846 0.42397258 0.03535919 
0.9071736 0.41923213 0.035783518 
0 0 0 
0 0 0 
0 0 0 
0 0 0 
0 0 0 
0 0 0 
0 0 0 
0 0 0 
0 0 0 
0 0 0 
0.9185329 0.3938942 0.033832826 
0.91256607 0.407475 0.03445773 
0.9087725 0.415765 0.035664048 
0.90666556 0.42040926 0.03483914 
0.9064814 0.42074338 0.03558798 
0.9089749 0.41542774 0.034418244 
0.918875 0.39319286 0.032683183 
0 0 0 
0 0 0 
0 0 0 
0 0 0 
0 0 0 
0 0 0 
0 0 0 
0 0 0 
0 0 0 
0.92121124 0.3875902 0.033817936 
0.91465145 0.40271065 0.035171904 
0.91001636 0.41309834 0.034928888 
0.9066417 0.42038655 0.03572251 
0.9056052 0.42269155 0.034803532 
0.90501696 0.42394808 0.034821693 
0 0 0 
0 0 0 
0 0 0 
0 0 0 
0 0 0 
0 0 0 
0 0 0 
0 0 0 
0 0 0 
0 0 0 
0 0 0 
0.91435987 0.40335125 0.035409015 
0.9101322 0.41277263 0.035751317 
0.90375143 0.4265936 0.035375018 
0.903238 0.42769518 0.03518425 
0.90148497 0.43145925 0.03417311 
0 0 0 
0 0 0 
0 0 0 
0 0 0 
0 0 0 
0 0 0 
0 0 0 
0 0 0 
0 0 0 
0 0 0 
0 0 0 
0 0 0 
0 0 0 
0.89241153 0.44978145 0.036033858 
0 0 0 
0 0 0 
0 0 0 
0 0 0 
0 0 0 
0 0 0 
0 0 0 
0 0 0 
0 0 0 
0 0 0 
0 0 0 
0 0 0 
0 0 0 
0 0 0 
0 0 0 
0 0 0 
0 0 0 
0 0 0 
0 0 0 
0 0 0 
0 0 0 
0 0 0 
0 0 0 
0 0 0 
0 0 0 
0 0 0 
0 0 0 
0 0 0 
0 0 0 
0 0 0 
0 0 0 
0 0 0 
0 0 0 
0 0 0 
0 0 0 
0 0 0 
0 0 0 
0 0 0 
0 0 0 
0 0 0 
0 0 0 
0 0 0 
0 0 0 
0 0 0 
0 0 0 
0 0 0 
0 0 0 
0 0 0 
0 0 0 
0 0 0 
0 0 0 
0 0 0 
0 0 0 
0 0 0 
0 0 0 
0 0 0 
0 0 0 
0 0 0 
0 0 0 
0 0 0 
0.8972648 0.44146973 -0.004519342 
0.8991653 0.43758255 -0.0048406674 
0.90173936 0.43225443 -0.0047185044 
0.9046014 0.42622972 -0.0049407585 
0 0 0 
0 0 0 
0 0 0 
0 0 0 
0 0 0 
0 0 0 
0 0 0 
0 0 0 
0 0 0 
0 0 0 
0 0 0 
0.9066462 0.4218691 -0.0043964363 
0.9036374 0.42827117 -0.0048359525 
0.90366715 0.4282134 -0.0043658684 
0.90457207 0.42629015 -0.005109517 
0.9074105 0.4202205 -0.004567596 
0.9129049 0.40814415 -0.00479422 
0 0 0 
0 0 0 
0 0 0 
0 0 0 
0 0 0 
0 0 0 
0 0 0 
0 0 0 
0 0 0 
0 0 0 
0.9102692 0.4139907 -0.004675137 
0.9074813 0.42007068 -0.0042985915 
0.90600735 0.42323065 -0.0051500225 
0.90586674 0.4235417 -0.004226919 
0.9071012 0.42088264 -0.005031814 
0.91075534 0.4129215 -0.004529823 
0 0 0 
0 0 0 
0 0 0 
0 0 0 
0 0 0 
0 0 0 
0 0 0 
0 0 0 
0 0 0 
0 0 0 
0.9139387 0.40582702 -0.004519609 
0.9096099 0.4154331 -0.005011361 
0.9071101 0.4208726 -0.004195554 
0.90575206 0.42377722 -0.005108349 
0.9058845 0.4235036 -0.0042487173 
0.9078392 0.41929305 -0.004625532 
0 0 0 
0 0 0 
0 0 0 
0 0 0 
0 0 0 
0 0 0 
0 0 0 
0 0 0 
0 0 0 
0 0 0 
0.91675264 0.39942738 -0.0047336924 
0.9108025 0.41281804 -0.0044793948 
0.906763 0.42161095 -0.0050082672 
0.90432507 0.4268232 -0.0042534457 
0.90287244 0.4298827 -0.004725127 
0.9047567 0.42590696 -0.00430055 
0 0 0 
0 0 0 
0 0 0 
0 0 0 
0 0 0 
0 0 0 
0 0 0 
0 0 0 
0 0 0 
0 0 0 
0 0 0 
0.9086601 0.41750914 -0.0047954856 
0.9046658 0.4260975 -0.004562123 
0.90053594 0.4347565 -0.004678774 
0.89739496 0.44120654 -0.0043576034 
0 0 0 
0 0 0 
0 0 0 
0 0 0 
0 0 0 
0 0 0 
0 0 0 
0 0 0 
0 0 0 
0 0 0 
0 0 0 
0 0 0 
0 0 0 
0 0 0 
0 0 0 
0 0 0 
0 0 0 
0 0 0 
0 0 0 
0 0 0 
0 0 0 
0 0 0 
0 0 0 
0 0 0 
0 0 0 
0 0 0 
0 0 0 
0 0 0 
0 0 0 
0 0 0 
0 0 0 
0 0 0 
0 0 0 
0 0 0 
0 0 0 
0 0 0 
0 0 0 
0 0 0 
0 0 0 
0 0 0 
# End: Data Text
# End: Segment
