# OOMMF: rectangular mesh v1.0
# Segment count: 1
# Begin: Segment
# Begin: Header
# Desc: Time (s) :  1.4795476168892562e-08
# Title: m
# meshtype: rectangular
# meshunit: m
# xbase: 2.5e-09
# ybase: 2.5e-09
# zbase: 2.25e-08
# xstepsize: 5e-09
# ystepsize: 5e-09
# zstepsize: 4.5e-08
# xmin: 0
# ymin: 0
# zmin: 0
# xmax: 8e-08
# ymax: 1.6e-07
# zmax: 4.5e-08
# xnodes: 16
# ynodes: 32
# znodes: 1
# ValueRangeMinMag: 1e-08
# ValueRangeMaxMag: 1
# valueunit: 
# valuemultiplier: 1
# End: Header
# Begin: Data Text
0 0 0 
0 0 0 
0 0 0 
0 0 0 
0 0 0 
0 0 0 
0 0 0 
0 0 0 
0 0 0 
0 0 0 
0 0 0 
0 0 0 
0 0 0 
0 0 0 
0 0 0 
0 0 0 
0 0 0 
0 0 0 
0 0 0 
0 0 0 
0 0 0 
0 0 0 
0 0 0 
0 0 0 
0 0 0 
0 0 0 
0 0 0 
0 0 0 
0 0 0 
0 0 0 
0 0 0 
0 0 0 
0 0 0 
0 0 0 
0 0 0 
0 0 0 
0 0 0 
0 0 0 
0 0 0 
0 0 0 
0 0 0 
0 0 0 
0 0 0 
0 0 0 
0 0 0 
0 0 0 
0 0 0 
0 0 0 
0 0 0 
0 0 0 
0 0 0 
0 0 0 
0 0 0 
0 0 0 
0 0 0 
0 0 0 
0 0 0 
0 0 0 
0 0 0 
0 0 0 
0 0 0 
0 0 0 
0 0 0 
0 0 0 
0 0 0 
0 0 0 
0 0 0 
0 0 0 
0 0 0 
0 0 0 
0 0 0 
0 0 0 
0 0 0 
0 0 0 
0 0 0 
0 0 0 
0 0 0 
0 0 0 
0 0 0 
0 0 0 
0 0 0 
0 0 0 
0 0 0 
0 0 0 
0 0 0 
0 0 0 
0 0 0 
0 0 0 
0 0 0 
0 0 0 
0 0 0 
0 0 0 
0 0 0 
0 0 0 
0 0 0 
0 0 0 
0 0 0 
0 0 0 
0 0 0 
0 0 0 
0 0 0 
0 0 0 
0.9072174 0.4198701 0.025801325 
0.90953434 0.41480002 0.026235655 
0.91241986 0.40840212 0.026412204 
0 0 0 
0 0 0 
0 0 0 
0 0 0 
0 0 0 
0 0 0 
0 0 0 
0 0 0 
0 0 0 
0 0 0 
0 0 0 
0 0 0 
0.91249424 0.40831912 0.025094584 
0.9120828 0.40920308 0.025651297 
0.91287047 0.40741485 0.026089156 
0.9151283 0.40229815 0.026392104 
0.9192384 0.3928046 0.026561698 
0 0 0 
0 0 0 
0 0 0 
0 0 0 
0 0 0 
0 0 0 
0 0 0 
0 0 0 
0 0 0 
0 0 0 
0.9212389 0.38827416 0.023706341 
0.91568464 0.4011285 0.024851162 
0.91387236 0.40519938 0.025511349 
0.91365963 0.4056498 0.025969723 
0.9145492 0.40361673 0.02633134 
0.91614383 0.3999648 0.026621452 
0 0 0 
0 0 0 
0 0 0 
0 0 0 
0 0 0 
0 0 0 
0 0 0 
0 0 0 
0 0 0 
0 0 0 
0.9225493 0.38514173 0.023845773 
0.91609955 0.40016866 0.025033116 
0.91369575 0.40559128 0.025608838 
0.9129429 0.40725723 0.026016612 
0.9130416 0.4070149 0.026342703 
0.91312194 0.4068201 0.026566703 
0 0 0 
0 0 0 
0 0 0 
0 0 0 
0 0 0 
0 0 0 
0 0 0 
0 0 0 
0 0 0 
0 0 0 
0 0 0 
0.9145558 0.40363932 0.025747625 
0.9125679 0.4081014 0.025943741 
0.9115016 0.41046026 0.026214855 
0.9113436 0.4107973 0.026430257 
0.9120076 0.4093207 0.02643204 
0 0 0 
0 0 0 
0 0 0 
0 0 0 
0 0 0 
0 0 0 
0 0 0 
0 0 0 
0 0 0 
0 0 0 
0 0 0 
0.9146787 0.4033498 0.025921592 
0.9119637 0.4094324 0.026216418 
0.90992594 0.41392887 0.02641746 
0.90768504 0.41881272 0.026528923 
0 0 0 
0 0 0 
0 0 0 
0 0 0 
0 0 0 
0 0 0 
0 0 0 
0 0 0 
0 0 0 
0 0 0 
0 0 0 
0 0 0 
0 0 0 
0 0 0 
0 0 0 
0 0 0 
0 0 0 
0 0 0 
0 0 0 
0 0 0 
0 0 0 
0 0 0 
0 0 0 
0 0 0 
0 0 0 
0 0 0 
0 0 0 
0 0 0 
0 0 0 
0 0 0 
0 0 0 
0 0 0 
0 0 0 
0 0 0 
0 0 0 
0 0 0 
0 0 0 
0 0 0 
0 0 0 
0 0 0 
0 0 0 
0 0 0 
0 0 0 
0 0 0 
0 0 0 
0.8994722 0.43654108 0.019536668 
0.9010708 0.43322474 0.019696599 
0.9028537 0.42949617 0.019704945 
0 0 0 
0 0 0 
0 0 0 
0 0 0 
0 0 0 
0 0 0 
0 0 0 
0 0 0 
0 0 0 
0 0 0 
0 0 0 
0 0 0 
0.9106631 0.41271552 0.01893395 
0.9080819 0.4183433 0.01939855 
0.90772414 0.4191208 0.01935448 
0.9095165 0.41520664 0.019580636 
0.914444 0.40425012 0.019338919 
0 0 0 
0 0 0 
0 0 0 
0 0 0 
0 0 0 
0 0 0 
0 0 0 
0 0 0 
0 0 0 
0 0 0 
0.9222156 0.38626137 0.017905453 
0.91621983 0.40023738 0.018747969 
0.9127594 0.4080613 0.018879935 
0.911766 0.41025528 0.019322066 
0.9117964 0.41019917 0.019078368 
0.91406643 0.4051097 0.019201716 
0 0 0 
0 0 0 
0 0 0 
0 0 0 
0 0 0 
0 0 0 
0 0 0 
0 0 0 
0 0 0 
0 0 0 
0.9246959 0.3802802 0.01801175 
0.91896284 0.39391163 0.018469937 
0.91566914 0.40148267 0.019018779 
0.9132619 0.40693846 0.018810976 
0.91336364 0.40669835 0.019063247 
0.9153814 0.4021601 0.018557712 
0.924654 0.3804038 0.017547457 
0 0 0 
0 0 0 
0 0 0 
0 0 0 
0 0 0 
0 0 0 
0 0 0 
0 0 0 
0 0 0 
0.92728156 0.37393165 0.018004447 
0.9212183 0.38859546 0.018720433 
0.91654444 0.39949217 0.018771483 
0.9135471 0.40628374 0.019116662 
0.91216177 0.40939862 0.018806443 
0.91162133 0.41060302 0.018757675 
0 0 0 
0 0 0 
0 0 0 
0 0 0 
0 0 0 
0 0 0 
0 0 0 
0 0 0 
0 0 0 
0 0 0 
0 0 0 
0.9209667 0.38918257 0.01890383 
0.9169036 0.39865083 0.019112263 
0.9105667 0.4129219 0.019074587 
0.909988 0.41420135 0.018953007 
0.9080274 0.4185031 0.018477837 
0 0 0 
0 0 0 
0 0 0 
0 0 0 
0 0 0 
0 0 0 
0 0 0 
0 0 0 
0 0 0 
0 0 0 
0 0 0 
0 0 0 
0 0 0 
0.89997643 0.43550485 0.019445727 
0 0 0 
0 0 0 
0 0 0 
0 0 0 
0 0 0 
0 0 0 
0 0 0 
0 0 0 
0 0 0 
0 0 0 
0 0 0 
0 0 0 
0 0 0 
0 0 0 
0 0 0 
0 0 0 
0 0 0 
0 0 0 
0 0 0 
0 0 0 
0 0 0 
0 0 0 
0 0 0 
0 0 0 
0 0 0 
0 0 0 
0 0 0 
0 0 0 
0 0 0 
0 0 0 
0 0 0 
0 0 0 
0 0 0 
0 0 0 
0 0 0 
0 0 0 
0 0 0 
0 0 0 
0 0 0 
0 0 0 
0 0 0 
0 0 0 
0 0 0 
0 0 0 
0 0 0 
0 0 0 
0 0 0 
0 0 0 
0 0 0 
0 0 0 
0 0 0 
0 0 0 
0 0 0 
0 0 0 
0 0 0 
0 0 0 
0 0 0 
0 0 0 
0 0 0 
0 0 0 
0.8965935 0.44269878 0.0117433565 
0.89841366 0.43898806 0.0119343065 
0.9010548 0.43353674 0.012087783 
0.9038424 0.42769644 0.012029916 
0 0 0 
0 0 0 
0 0 0 
0 0 0 
0 0 0 
0 0 0 
0 0 0 
0 0 0 
0 0 0 
0 0 0 
0 0 0 
0.9060093 0.4231032 0.011437422 
0.90286833 0.42975768 0.011711679 
0.90308106 0.4293031 0.011980114 
0.9037363 0.42792398 0.011915168 
0.9067678 0.42146018 0.011976273 
0.9121756 0.40963283 0.011691384 
0 0 0 
0 0 0 
0 0 0 
0 0 0 
0 0 0 
0 0 0 
0 0 0 
0 0 0 
0 0 0 
0 0 0 
0.90955746 0.41541716 0.0115726 
0.90690166 0.42117566 0.011853675 
0.9051312 0.42496866 0.011799382 
0.9053077 0.42458752 0.011975294 
0.9062597 0.42255735 0.011772093 
0.9100839 0.41425914 0.011692499 
0 0 0 
0 0 0 
0 0 0 
0 0 0 
0 0 0 
0 0 0 
0 0 0 
0 0 0 
0 0 0 
0 0 0 
0.9132907 0.40714 0.011715113 
0.9087821 0.41710472 0.011782272 
0.9065448 0.42194006 0.0119680185 
0.9048527 0.42556205 0.011774233 
0.90526915 0.42467445 0.011815982 
0.9070828 0.4207943 0.01152855 
0 0 0 
0 0 0 
0 0 0 
0 0 0 
0 0 0 
0 0 0 
0 0 0 
0 0 0 
0 0 0 
0 0 0 
0.91603225 0.40093407 0.011697351 
0.9101472 0.4141124 0.011960332 
0.90589726 0.42333114 0.0118790055 
0.90369064 0.42801988 0.011927049 
0.90204257 0.4314899 0.011649632 
0.9040602 0.42725378 0.011377214 
0 0 0 
0 0 0 
0 0 0 
0 0 0 
0 0 0 
0 0 0 
0 0 0 
0 0 0 
0 0 0 
0 0 0 
0 0 0 
0.9078658 0.41908938 0.01199074 
0.903929 0.42751324 0.012031848 
0.8997148 0.43631718 0.011863201 
0.89664406 0.44259837 0.011665943 
0 0 0 
0 0 0 
0 0 0 
0 0 0 
0 0 0 
0 0 0 
0 0 0 
0 0 0 
0 0 0 
0 0 0 
0 0 0 
0 0 0 
0 0 0 
0 0 0 
0 0 0 
0 0 0 
0 0 0 
0 0 0 
0 0 0 
0 0 0 
0 0 0 
0 0 0 
0 0 0 
0 0 0 
0 0 0 
0 0 0 
0 0 0 
0 0 0 
0 0 0 
0 0 0 
0 0 0 
0 0 0 
0 0 0 
0 0 0 
0 0 0 
0 0 0 
0 0 0 
0 0 0 
0 0 0 
0 0 0 
# End: Data Text
# End: Segment
