# OOMMF: rectangular mesh v1.0
# Segment count: 1
# Begin: Segment
# Begin: Header
# Desc: Time (s) :  2.9717703758861425e-09
# Title: m
# meshtype: rectangular
# meshunit: m
# xbase: 2.5e-09
# ybase: 2.5e-09
# zbase: 2.25e-08
# xstepsize: 5e-09
# ystepsize: 5e-09
# zstepsize: 4.5e-08
# xmin: 0
# ymin: 0
# zmin: 0
# xmax: 8e-08
# ymax: 1.6e-07
# zmax: 4.5e-08
# xnodes: 16
# ynodes: 32
# znodes: 1
# ValueRangeMinMag: 1e-08
# ValueRangeMaxMag: 1
# valueunit: 
# valuemultiplier: 1
# End: Header
# Begin: Data Text
0 0 0 
0 0 0 
0 0 0 
0 0 0 
0 0 0 
0 0 0 
0 0 0 
0 0 0 
0 0 0 
0 0 0 
0 0 0 
0 0 0 
0 0 0 
0 0 0 
0 0 0 
0 0 0 
0 0 0 
0 0 0 
0 0 0 
0 0 0 
0 0 0 
0 0 0 
0 0 0 
0 0 0 
0 0 0 
0 0 0 
0 0 0 
0 0 0 
0 0 0 
0 0 0 
0 0 0 
0 0 0 
0 0 0 
0 0 0 
0 0 0 
0 0 0 
0 0 0 
0 0 0 
0 0 0 
0 0 0 
0 0 0 
0 0 0 
0 0 0 
0 0 0 
0 0 0 
0 0 0 
0 0 0 
0 0 0 
0 0 0 
0 0 0 
0 0 0 
0 0 0 
0 0 0 
0 0 0 
0 0 0 
0 0 0 
0 0 0 
0 0 0 
0 0 0 
0 0 0 
0 0 0 
0 0 0 
0 0 0 
0 0 0 
0 0 0 
0 0 0 
0 0 0 
0 0 0 
0 0 0 
0 0 0 
0 0 0 
0 0 0 
0 0 0 
0 0 0 
0 0 0 
0 0 0 
0 0 0 
0 0 0 
0 0 0 
0 0 0 
0 0 0 
0 0 0 
0 0 0 
0 0 0 
0 0 0 
0 0 0 
0 0 0 
0 0 0 
0 0 0 
0 0 0 
0 0 0 
0 0 0 
0 0 0 
0 0 0 
0 0 0 
0 0 0 
0 0 0 
0 0 0 
0 0 0 
0 0 0 
0 0 0 
0 0 0 
0.9636675 0.26706904 0.0043478743 
0.965817 0.25918838 0.004349963 
0.9681902 0.25017804 0.0043403013 
0 0 0 
0 0 0 
0 0 0 
0 0 0 
0 0 0 
0 0 0 
0 0 0 
0 0 0 
0 0 0 
0 0 0 
0 0 0 
0 0 0 
0.9650001 0.2622152 0.0042493828 
0.96586376 0.2590153 0.0042715133 
0.9671496 0.25417086 0.0043531773 
0.96898735 0.24707332 0.0042850627 
0.9716747 0.23628382 0.004284819 
0 0 0 
0 0 0 
0 0 0 
0 0 0 
0 0 0 
0 0 0 
0 0 0 
0 0 0 
0 0 0 
0 0 0 
0.9687345 0.24806783 0.0039798142 
0.9668608 0.25527072 0.004145771 
0.9668346 0.2553674 0.0043020374 
0.96734476 0.25342876 0.004248208 
0.9683498 0.24955913 0.00434885 
0.9695988 0.24466206 0.004310974 
0 0 0 
0 0 0 
0 0 0 
0 0 0 
0 0 0 
0 0 0 
0 0 0 
0 0 0 
0 0 0 
0 0 0 
0.96986854 0.2435965 0.003971448 
0.9676404 0.25229853 0.004201129 
0.96695805 0.25490102 0.004214455 
0.9670335 0.25461197 0.004356205 
0.9673377 0.25345448 0.004302226 
0.9674819 0.2529026 0.004371892 
0 0 0 
0 0 0 
0 0 0 
0 0 0 
0 0 0 
0 0 0 
0 0 0 
0 0 0 
0 0 0 
0 0 0 
0 0 0 
0.96805304 0.25070968 0.0042410586 
0.96692806 0.25501257 0.0043289857 
0.96642494 0.25691321 0.004310041 
0.96639323 0.2570306 0.0044017746 
0.96630466 0.25736406 0.0043587196 
0 0 0 
0 0 0 
0 0 0 
0 0 0 
0 0 0 
0 0 0 
0 0 0 
0 0 0 
0 0 0 
0 0 0 
0 0 0 
0.9692145 0.24618126 0.0042575835 
0.9673058 0.2535763 0.004316286 
0.9658247 0.2591588 0.004396659 
0.9644092 0.26437747 0.004414738 
0 0 0 
0 0 0 
0 0 0 
0 0 0 
0 0 0 
0 0 0 
0 0 0 
0 0 0 
0 0 0 
0 0 0 
0 0 0 
0 0 0 
0 0 0 
0 0 0 
0 0 0 
0 0 0 
0 0 0 
0 0 0 
0 0 0 
0 0 0 
0 0 0 
0 0 0 
0 0 0 
0 0 0 
0 0 0 
0 0 0 
0 0 0 
0 0 0 
0 0 0 
0 0 0 
0 0 0 
0 0 0 
0 0 0 
0 0 0 
0 0 0 
0 0 0 
0 0 0 
0 0 0 
0 0 0 
0 0 0 
0 0 0 
0 0 0 
0 0 0 
0 0 0 
0 0 0 
0.9600154 0.27990955 0.0045971028 
0.9613451 0.27531078 0.0044451007 
0.9628592 0.2699649 0.004592482 
0 0 0 
0 0 0 
0 0 0 
0 0 0 
0 0 0 
0 0 0 
0 0 0 
0 0 0 
0 0 0 
0 0 0 
0 0 0 
0 0 0 
0.9645496 0.26386487 0.004403427 
0.9638684 0.26634657 0.0041627223 
0.9641835 0.26519373 0.004751137 
0.9652966 0.2611221 0.004221155 
0.96806383 0.25066453 0.004446982 
0 0 0 
0 0 0 
0 0 0 
0 0 0 
0 0 0 
0 0 0 
0 0 0 
0 0 0 
0 0 0 
0 0 0 
0.96997255 0.24318099 0.004023492 
0.96750164 0.25283456 0.0039262143 
0.96625984 0.2575263 0.004710229 
0.96566147 0.25977427 0.003903732 
0.96583396 0.25911877 0.004726621 
0.9669238 0.255031 0.0042154174 
0 0 0 
0 0 0 
0 0 0 
0 0 0 
0 0 0 
0 0 0 
0 0 0 
0 0 0 
0 0 0 
0 0 0 
0.97179896 0.23577951 0.0038370544 
0.96936315 0.24559258 0.004410071 
0.9675807 0.25253412 0.0037753067 
0.96639514 0.25701675 0.0047956305 
0.9659194 0.2588135 0.003930083 
0.9665645 0.25638503 0.0044603283 
0.9702606 0.24203049 0.0039500874 
0 0 0 
0 0 0 
0 0 0 
0 0 0 
0 0 0 
0 0 0 
0 0 0 
0 0 0 
0 0 0 
0.9737314 0.22766542 0.0039635757 
0.9708989 0.23945838 0.0038646315 
0.9683899 0.24939951 0.004567949 
0.96631414 0.25733575 0.003913296 
0.96512604 0.26174468 0.004643797 
0.96397465 0.26596123 0.0042102435 
0 0 0 
0 0 0 
0 0 0 
0 0 0 
0 0 0 
0 0 0 
0 0 0 
0 0 0 
0 0 0 
0 0 0 
0 0 0 
0.9716293 0.23647118 0.0042122086 
0.9688759 0.24751295 0.0041055405 
0.9651377 0.26170313 0.0045679854 
0.9635281 0.26757342 0.0042498796 
0.9613391 0.27533266 0.0043710056 
0 0 0 
0 0 0 
0 0 0 
0 0 0 
0 0 0 
0 0 0 
0 0 0 
0 0 0 
0 0 0 
0 0 0 
0 0 0 
0 0 0 
0 0 0 
0.9606709 0.27765355 0.004466271 
0 0 0 
0 0 0 
0 0 0 
0 0 0 
0 0 0 
0 0 0 
0 0 0 
0 0 0 
0 0 0 
0 0 0 
0 0 0 
0 0 0 
0 0 0 
0 0 0 
0 0 0 
0 0 0 
0 0 0 
0 0 0 
0 0 0 
0 0 0 
0 0 0 
0 0 0 
0 0 0 
0 0 0 
0 0 0 
0 0 0 
0 0 0 
0 0 0 
0 0 0 
0 0 0 
0 0 0 
0 0 0 
0 0 0 
0 0 0 
0 0 0 
0 0 0 
0 0 0 
0 0 0 
0 0 0 
0 0 0 
0 0 0 
0 0 0 
0 0 0 
0 0 0 
0 0 0 
0 0 0 
0 0 0 
0 0 0 
0 0 0 
0 0 0 
0 0 0 
0 0 0 
0 0 0 
0 0 0 
0 0 0 
0 0 0 
0 0 0 
0 0 0 
0 0 0 
0 0 0 
0.9626746 0.27064446 0.003032713 
0.9646877 0.26337767 0.0031605817 
0.96701163 0.25471407 0.0030600156 
0.96921533 0.24619515 0.0031242433 
0 0 0 
0 0 0 
0 0 0 
0 0 0 
0 0 0 
0 0 0 
0 0 0 
0 0 0 
0 0 0 
0 0 0 
0 0 0 
0.9663189 0.25733066 0.0029459335 
0.9658548 0.25906458 0.0031688616 
0.96667606 0.25598603 0.0029302828 
0.96758217 0.2525354 0.0032546204 
0.9693404 0.24570417 0.0029653637 
0.97185373 0.23556569 0.0030405973 
0 0 0 
0 0 0 
0 0 0 
0 0 0 
0 0 0 
0 0 0 
0 0 0 
0 0 0 
0 0 0 
0 0 0 
0.96893865 0.2472827 0.0030596554 
0.96816045 0.250314 0.0028965394 
0.96769255 0.2521116 0.00330168 
0.9676996 0.25209004 0.002858355 
0.96819204 0.2501875 0.003226307 
0.96975774 0.2440514 0.0029673395 
0 0 0 
0 0 0 
0 0 0 
0 0 0 
0 0 0 
0 0 0 
0 0 0 
0 0 0 
0 0 0 
0 0 0 
0.97165644 0.23637885 0.0029567692 
0.9696257 0.24457258 0.0032183717 
0.9682816 0.24984495 0.0028545693 
0.96728194 0.2536827 0.0033038992 
0.96687573 0.25523114 0.0029038049 
0.9671341 0.2542483 0.003070083 
0 0 0 
0 0 0 
0 0 0 
0 0 0 
0 0 0 
0 0 0 
0 0 0 
0 0 0 
0 0 0 
0 0 0 
0.97384924 0.22717519 0.0030300887 
0.9709101 0.23942631 0.0029562672 
0.9683295 0.24965467 0.0032501998 
0.9664162 0.25696534 0.0029298582 
0.9646954 0.26334906 0.0031750705 
0.9645554 0.263864 0.0029559645 
0 0 0 
0 0 0 
0 0 0 
0 0 0 
0 0 0 
0 0 0 
0 0 0 
0 0 0 
0 0 0 
0 0 0 
0 0 0 
0.9708096 0.2398314 0.0031150172 
0.9678749 0.25141403 0.0030530747 
0.9645412 0.2639133 0.0031595402 
0.96172327 0.2740057 0.0030358538 
0 0 0 
0 0 0 
0 0 0 
0 0 0 
0 0 0 
0 0 0 
0 0 0 
0 0 0 
0 0 0 
0 0 0 
0 0 0 
0 0 0 
0 0 0 
0 0 0 
0 0 0 
0 0 0 
0 0 0 
0 0 0 
0 0 0 
0 0 0 
0 0 0 
0 0 0 
0 0 0 
0 0 0 
0 0 0 
0 0 0 
0 0 0 
0 0 0 
0 0 0 
0 0 0 
0 0 0 
0 0 0 
0 0 0 
0 0 0 
0 0 0 
0 0 0 
0 0 0 
0 0 0 
0 0 0 
0 0 0 
# End: Data Text
# End: Segment
