# OOMMF: rectangular mesh v1.0
# Segment count: 1
# Begin: Segment
# Begin: Header
# Desc: Time (s) :  6.42774845156911e-09
# Title: m
# meshtype: rectangular
# meshunit: m
# xbase: 2.5e-09
# ybase: 2.5e-09
# zbase: 2.25e-08
# xstepsize: 5e-09
# ystepsize: 5e-09
# zstepsize: 4.5e-08
# xmin: 0
# ymin: 0
# zmin: 0
# xmax: 8e-08
# ymax: 1.6e-07
# zmax: 4.5e-08
# xnodes: 16
# ynodes: 32
# znodes: 1
# ValueRangeMinMag: 1e-08
# ValueRangeMaxMag: 1
# valueunit: 
# valuemultiplier: 1
# End: Header
# Begin: Data Text
0 0 0 
0 0 0 
0 0 0 
0 0 0 
0 0 0 
0 0 0 
0 0 0 
0 0 0 
0 0 0 
0 0 0 
0 0 0 
0 0 0 
0 0 0 
0 0 0 
0 0 0 
0 0 0 
0 0 0 
0 0 0 
0 0 0 
0 0 0 
0 0 0 
0 0 0 
0 0 0 
0 0 0 
0 0 0 
0 0 0 
0 0 0 
0 0 0 
0 0 0 
0 0 0 
0 0 0 
0 0 0 
0 0 0 
0 0 0 
0 0 0 
0 0 0 
0 0 0 
0 0 0 
0 0 0 
0 0 0 
0 0 0 
0 0 0 
0 0 0 
0 0 0 
0 0 0 
0 0 0 
0 0 0 
0 0 0 
0 0 0 
0 0 0 
0 0 0 
0 0 0 
0 0 0 
0 0 0 
0 0 0 
0 0 0 
0 0 0 
0 0 0 
0 0 0 
0 0 0 
0 0 0 
0 0 0 
0 0 0 
0 0 0 
0 0 0 
0 0 0 
0 0 0 
0 0 0 
0 0 0 
0 0 0 
0 0 0 
0 0 0 
0 0 0 
0 0 0 
0 0 0 
0 0 0 
0 0 0 
0 0 0 
0 0 0 
0 0 0 
0 0 0 
0 0 0 
0 0 0 
0 0 0 
0 0 0 
0 0 0 
0 0 0 
0 0 0 
0 0 0 
0 0 0 
0 0 0 
0 0 0 
0 0 0 
0 0 0 
0 0 0 
0 0 0 
0 0 0 
0 0 0 
0 0 0 
0 0 0 
0 0 0 
0 0 0 
0.96360826 0.2672847 0.0042516203 
0.96576726 0.25937492 0.0042755394 
0.9681331 0.25040027 0.0042427196 
0 0 0 
0 0 0 
0 0 0 
0 0 0 
0 0 0 
0 0 0 
0 0 0 
0 0 0 
0 0 0 
0 0 0 
0 0 0 
0 0 0 
0.96494436 0.2624219 0.0041557783 
0.9658257 0.2591581 0.0042240922 
0.9670808 0.25443482 0.0042219292 
0.9689469 0.24723324 0.004228845 
0.9716214 0.23650464 0.00418552 
0 0 0 
0 0 0 
0 0 0 
0 0 0 
0 0 0 
0 0 0 
0 0 0 
0 0 0 
0 0 0 
0 0 0 
0.9686872 0.24825405 0.0038989186 
0.9668246 0.2554082 0.0041012317 
0.96676236 0.255643 0.0041608685 
0.9673161 0.25353846 0.0042260834 
0.96828014 0.2498316 0.0042121797 
0.969553 0.24484493 0.0042371703 
0 0 0 
0 0 0 
0 0 0 
0 0 0 
0 0 0 
0 0 0 
0 0 0 
0 0 0 
0 0 0 
0 0 0 
0.9698274 0.2437611 0.0039060814 
0.9675783 0.25253844 0.0040850923 
0.9669286 0.25501272 0.0041903197 
0.9669571 0.25490475 0.00420446 
0.9673025 0.2535897 0.0042614215 
0.9674222 0.25313252 0.0042643873 
0 0 0 
0 0 0 
0 0 0 
0 0 0 
0 0 0 
0 0 0 
0 0 0 
0 0 0 
0 0 0 
0 0 0 
0 0 0 
0.968009 0.25088102 0.004175746 
0.9668604 0.25527117 0.004201976 
0.9663887 0.25705025 0.0042688525 
0.96632653 0.2572832 0.004277714 
0.96625435 0.2575542 0.0042777075 
0 0 0 
0 0 0 
0 0 0 
0 0 0 
0 0 0 
0 0 0 
0 0 0 
0 0 0 
0 0 0 
0 0 0 
0 0 0 
0.96916056 0.24639499 0.004165606 
0.967258 0.25375992 0.0042431094 
0.965764 0.25938678 0.0042917524 
0.9643568 0.26456973 0.00433289 
0 0 0 
0 0 0 
0 0 0 
0 0 0 
0 0 0 
0 0 0 
0 0 0 
0 0 0 
0 0 0 
0 0 0 
0 0 0 
0 0 0 
0 0 0 
0 0 0 
0 0 0 
0 0 0 
0 0 0 
0 0 0 
0 0 0 
0 0 0 
0 0 0 
0 0 0 
0 0 0 
0 0 0 
0 0 0 
0 0 0 
0 0 0 
0 0 0 
0 0 0 
0 0 0 
0 0 0 
0 0 0 
0 0 0 
0 0 0 
0 0 0 
0 0 0 
0 0 0 
0 0 0 
0 0 0 
0 0 0 
0 0 0 
0 0 0 
0 0 0 
0 0 0 
0 0 0 
0.9599596 0.28010383 0.004383461 
0.961277 0.27554685 0.0045400364 
0.9628041 0.27016464 0.00438695 
0 0 0 
0 0 0 
0 0 0 
0 0 0 
0 0 0 
0 0 0 
0 0 0 
0 0 0 
0 0 0 
0 0 0 
0 0 0 
0 0 0 
0.9645043 0.26403448 0.0041406 
0.96379375 0.2666097 0.004567804 
0.9641508 0.26532346 0.0040833917 
0.9652243 0.26138303 0.0045726374 
0.96801686 0.25084952 0.004231735 
0 0 0 
0 0 0 
0 0 0 
0 0 0 
0 0 0 
0 0 0 
0 0 0 
0 0 0 
0 0 0 
0 0 0 
0.9699323 0.24334486 0.0038249698 
0.9674341 0.25308615 0.00433604 
0.96623904 0.25761887 0.003831299 
0.96557456 0.26008397 0.004699836 
0.965808 0.2592286 0.0039584027 
0.9668622 0.25526103 0.004402573 
0 0 0 
0 0 0 
0 0 0 
0 0 0 
0 0 0 
0 0 0 
0 0 0 
0 0 0 
0 0 0 
0 0 0 
0.97174895 0.23598418 0.0039472166 
0.9693373 0.24570554 0.0037520432 
0.9674978 0.25283805 0.004574278 
0.9663811 0.2570867 0.0037584184 
0.9658391 0.25910193 0.004609341 
0.96653044 0.25652108 0.003996185 
0.970216 0.24220963 0.0039385967 
0 0 0 
0 0 0 
0 0 0 
0 0 0 
0 0 0 
0 0 0 
0 0 0 
0 0 0 
0 0 0 
0.97369325 0.2278316 0.0037753168 
0.97083724 0.23970266 0.004226029 
0.968367 0.24950172 0.0038033954 
0.96623385 0.2576256 0.004595218 
0.9650979 0.26185915 0.003982341 
0.9639146 0.2661761 0.004371388 
0 0 0 
0 0 0 
0 0 0 
0 0 0 
0 0 0 
0 0 0 
0 0 0 
0 0 0 
0 0 0 
0 0 0 
0 0 0 
0.97158754 0.23664634 0.004002715 
0.96881694 0.24774027 0.0042974767 
0.9651007 0.26184726 0.0040972666 
0.9634666 0.2677922 0.0044109076 
0.96129084 0.27550367 0.004206099 
0 0 0 
0 0 0 
0 0 0 
0 0 0 
0 0 0 
0 0 0 
0 0 0 
0 0 0 
0 0 0 
0 0 0 
0 0 0 
0 0 0 
0 0 0 
0.9606094 0.2778667 0.0044428413 
0 0 0 
0 0 0 
0 0 0 
0 0 0 
0 0 0 
0 0 0 
0 0 0 
0 0 0 
0 0 0 
0 0 0 
0 0 0 
0 0 0 
0 0 0 
0 0 0 
0 0 0 
0 0 0 
0 0 0 
0 0 0 
0 0 0 
0 0 0 
0 0 0 
0 0 0 
0 0 0 
0 0 0 
0 0 0 
0 0 0 
0 0 0 
0 0 0 
0 0 0 
0 0 0 
0 0 0 
0 0 0 
0 0 0 
0 0 0 
0 0 0 
0 0 0 
0 0 0 
0 0 0 
0 0 0 
0 0 0 
0 0 0 
0 0 0 
0 0 0 
0 0 0 
0 0 0 
0 0 0 
0 0 0 
0 0 0 
0 0 0 
0 0 0 
0 0 0 
0 0 0 
0 0 0 
0 0 0 
0 0 0 
0 0 0 
0 0 0 
0 0 0 
0 0 0 
0 0 0 
0.96261734 0.27084923 0.0029386512 
0.96463263 0.26358002 0.0030838142 
0.96695536 0.2549286 0.002957166 
0.9691621 0.24640559 0.003041035 
0 0 0 
0 0 0 
0 0 0 
0 0 0 
0 0 0 
0 0 0 
0 0 0 
0 0 0 
0 0 0 
0 0 0 
0 0 0 
0.96626765 0.25752407 0.0028563056 
0.9658041 0.2592547 0.0031073089 
0.96661943 0.25620106 0.0028062726 
0.9675322 0.25272757 0.0032013 
0.96928686 0.24591653 0.0028524213 
0.9718061 0.23576297 0.0029619844 
0 0 0 
0 0 0 
0 0 0 
0 0 0 
0 0 0 
0 0 0 
0 0 0 
0 0 0 
0 0 0 
0 0 0 
0.96889067 0.24747124 0.0029881815 
0.96810627 0.25052452 0.0027747625 
0.96764493 0.25229496 0.0032642968 
0.9676431 0.25230852 0.002720827 
0.9681437 0.25037512 0.003175801 
0.96970785 0.24425094 0.0028703096 
0 0 0 
0 0 0 
0 0 0 
0 0 0 
0 0 0 
0 0 0 
0 0 0 
0 0 0 
0 0 0 
0 0 0 
0.9716081 0.23657885 0.0028589335 
0.96957874 0.24475914 0.0031674914 
0.96822613 0.2500618 0.0027175867 
0.9672342 0.2538651 0.0032673418 
0.96682113 0.25543934 0.0027828987 
0.96708524 0.25443527 0.0030004873 
0 0 0 
0 0 0 
0 0 0 
0 0 0 
0 0 0 
0 0 0 
0 0 0 
0 0 0 
0 0 0 
0 0 0 
0.97380364 0.22737168 0.002952054 
0.9708587 0.23963585 0.00284482 
0.96828103 0.24984339 0.0031981848 
0.9663603 0.2571769 0.002808314 
0.9646447 0.26353577 0.0031159848 
0.96450335 0.26405525 0.0028681033 
0 0 0 
0 0 0 
0 0 0 
0 0 0 
0 0 0 
0 0 0 
0 0 0 
0 0 0 
0 0 0 
0 0 0 
0 0 0 
0.9707594 0.24003534 0.0030336243 
0.967821 0.25162253 0.002952122 
0.9644875 0.2641106 0.0030855944 
0.96166676 0.27420506 0.0029443272 
0 0 0 
0 0 0 
0 0 0 
0 0 0 
0 0 0 
0 0 0 
0 0 0 
0 0 0 
0 0 0 
0 0 0 
0 0 0 
0 0 0 
0 0 0 
0 0 0 
0 0 0 
0 0 0 
0 0 0 
0 0 0 
0 0 0 
0 0 0 
0 0 0 
0 0 0 
0 0 0 
0 0 0 
0 0 0 
0 0 0 
0 0 0 
0 0 0 
0 0 0 
0 0 0 
0 0 0 
0 0 0 
0 0 0 
0 0 0 
0 0 0 
0 0 0 
0 0 0 
0 0 0 
0 0 0 
0 0 0 
# End: Data Text
# End: Segment
