# OOMMF: rectangular mesh v1.0
# Segment count: 1
# Begin: Segment
# Begin: Header
# Desc: Time (s) :  3.3932102751534043e-10
# Title: m
# meshtype: rectangular
# meshunit: m
# xbase: 2.5e-09
# ybase: 2.5e-09
# zbase: 2.25e-08
# xstepsize: 5e-09
# ystepsize: 5e-09
# zstepsize: 4.5e-08
# xmin: 0
# ymin: 0
# zmin: 0
# xmax: 8e-08
# ymax: 1.6e-07
# zmax: 4.5e-08
# xnodes: 16
# ynodes: 32
# znodes: 1
# ValueRangeMinMag: 1e-08
# ValueRangeMaxMag: 1
# valueunit: 
# valuemultiplier: 1
# End: Header
# Begin: Data Text
0 0 0 
0 0 0 
0 0 0 
0 0 0 
0 0 0 
0 0 0 
0 0 0 
0 0 0 
0 0 0 
0 0 0 
0 0 0 
0 0 0 
0 0 0 
0 0 0 
0 0 0 
0 0 0 
0 0 0 
0 0 0 
0 0 0 
0 0 0 
0 0 0 
0 0 0 
0 0 0 
0 0 0 
0 0 0 
0 0 0 
0 0 0 
0 0 0 
0 0 0 
0 0 0 
0 0 0 
0 0 0 
0 0 0 
0 0 0 
0 0 0 
0 0 0 
0 0 0 
0 0 0 
0 0 0 
0 0 0 
0 0 0 
0 0 0 
0 0 0 
0 0 0 
0 0 0 
0 0 0 
0 0 0 
0 0 0 
0 0 0 
0 0 0 
0 0 0 
0 0 0 
0 0 0 
0 0 0 
0 0 0 
0 0 0 
0 0 0 
0 0 0 
0 0 0 
0 0 0 
0 0 0 
0 0 0 
0 0 0 
0 0 0 
0 0 0 
0 0 0 
0 0 0 
0 0 0 
0 0 0 
0 0 0 
0 0 0 
0 0 0 
0 0 0 
0 0 0 
0 0 0 
0 0 0 
0 0 0 
0 0 0 
0 0 0 
0 0 0 
0 0 0 
0 0 0 
0 0 0 
0 0 0 
0 0 0 
0 0 0 
0 0 0 
0 0 0 
0 0 0 
0 0 0 
0 0 0 
0 0 0 
0 0 0 
0 0 0 
0 0 0 
0 0 0 
0 0 0 
0 0 0 
0 0 0 
0 0 0 
0 0 0 
0 0 0 
0.9636855 0.26700482 0.004318823 
0.96582973 0.2591427 0.00425737 
0.96820754 0.25011128 0.0043070554 
0 0 0 
0 0 0 
0 0 0 
0 0 0 
0 0 0 
0 0 0 
0 0 0 
0 0 0 
0 0 0 
0 0 0 
0 0 0 
0 0 0 
0.96501815 0.26214904 0.004232832 
0.96587014 0.25899413 0.0041179173 
0.96717465 0.25407448 0.0044141333 
0.9689954 0.24704409 0.004143185 
0.97169113 0.23621668 0.004253066 
0 0 0 
0 0 0 
0 0 0 
0 0 0 
0 0 0 
0 0 0 
0 0 0 
0 0 0 
0 0 0 
0 0 0 
0.96874946 0.24801011 0.003953303 
0.96686614 0.25525287 0.003998879 
0.9668639 0.25525466 0.004406465 
0.96734434 0.2534342 0.0040207375 
0.9683766 0.2494541 0.004421559 
0.9696099 0.24462 0.0042088632 
0 0 0 
0 0 0 
0 0 0 
0 0 0 
0 0 0 
0 0 0 
0 0 0 
0 0 0 
0 0 0 
0 0 0 
0.9698792 0.24355525 0.0038992215 
0.96766424 0.25220612 0.004248833 
0.96695673 0.25490955 0.003994997 
0.9670661 0.25448608 0.004480477 
0.9673403 0.25344816 0.004112936 
0.9675021 0.2528254 0.004361314 
0 0 0 
0 0 0 
0 0 0 
0 0 0 
0 0 0 
0 0 0 
0 0 0 
0 0 0 
0 0 0 
0 0 0 
0 0 0 
0.9680623 0.25067607 0.004132256 
0.9669554 0.25490794 0.0043923254 
0.966427 0.25690848 0.004123899 
0.96641874 0.25693426 0.0044390135 
0.96631765 0.25731674 0.004275519 
0 0 0 
0 0 0 
0 0 0 
0 0 0 
0 0 0 
0 0 0 
0 0 0 
0 0 0 
0 0 0 
0 0 0 
0 0 0 
0.96923125 0.2461158 0.004220696 
0.9673167 0.25353608 0.004218723 
0.9658454 0.25908208 0.00438648 
0.9644227 0.2643294 0.0043312097 
0 0 0 
0 0 0 
0 0 0 
0 0 0 
0 0 0 
0 0 0 
0 0 0 
0 0 0 
0 0 0 
0 0 0 
0 0 0 
0 0 0 
0 0 0 
0 0 0 
0 0 0 
0 0 0 
0 0 0 
0 0 0 
0 0 0 
0 0 0 
0 0 0 
0 0 0 
0 0 0 
0 0 0 
0 0 0 
0 0 0 
0 0 0 
0 0 0 
0 0 0 
0 0 0 
0 0 0 
0 0 0 
0 0 0 
0 0 0 
0 0 0 
0 0 0 
0 0 0 
0 0 0 
0 0 0 
0 0 0 
0 0 0 
0 0 0 
0 0 0 
0 0 0 
0 0 0 
0.96003056 0.27986047 0.004422553 
0.9613751 0.27520362 0.0045830966 
0.9628743 0.269914 0.0044277855 
0 0 0 
0 0 0 
0 0 0 
0 0 0 
0 0 0 
0 0 0 
0 0 0 
0 0 0 
0 0 0 
0 0 0 
0 0 0 
0 0 0 
0.96455944 0.26383263 0.004176362 
0.9639103 0.26618728 0.0046107057 
0.9641753 0.26523396 0.0041182623 
0.9653363 0.26096836 0.0046159667 
0.9680758 0.25062135 0.0042697913 
0 0 0 
0 0 0 
0 0 0 
0 0 0 
0 0 0 
0 0 0 
0 0 0 
0 0 0 
0 0 0 
0 0 0 
0.9699826 0.24314392 0.0038585025 
0.96754014 0.2526799 0.0043740673 
0.966241 0.25761092 0.0038652385 
0.9657211 0.25953874 0.004740535 
0.96581936 0.25918543 0.0039954213 
0.96695435 0.2549112 0.004439945 
0 0 0 
0 0 0 
0 0 0 
0 0 0 
0 0 0 
0 0 0 
0 0 0 
0 0 0 
0 0 0 
0 0 0 
0.9718216 0.2356842 0.0039805323 
0.9693542 0.24563836 0.003788185 
0.96763796 0.2523004 0.004608514 
0.9663672 0.25713858 0.0037980576 
0.9659743 0.2585967 0.0046420563 
0.96656233 0.25640002 0.004033091 
0.9702783 0.24195932 0.0039701215 
0 0 0 
0 0 0 
0 0 0 
0 0 0 
0 0 0 
0 0 0 
0 0 0 
0 0 0 
0 0 0 
0.9737411 0.22762674 0.0038092907 
0.9709339 0.23931 0.0042584967 
0.9683752 0.24946909 0.003844188 
0.96636885 0.25711834 0.0046242597 
0.965114 0.26179934 0.0040231813 
0.96400464 0.26584902 0.0044037174 
0 0 0 
0 0 0 
0 0 0 
0 0 0 
0 0 0 
0 0 0 
0 0 0 
0 0 0 
0 0 0 
0 0 0 
0 0 0 
0.97163993 0.23643093 0.0040398347 
0.9689054 0.2473936 0.0043307156 
0.96513605 0.2617163 0.004138649 
0.9635586 0.26746047 0.0044422257 
0.96135205 0.2752893 0.0042417757 
0 0 0 
0 0 0 
0 0 0 
0 0 0 
0 0 0 
0 0 0 
0 0 0 
0 0 0 
0 0 0 
0 0 0 
0 0 0 
0 0 0 
0 0 0 
0.96069455 0.2775715 0.0044799675 
0 0 0 
0 0 0 
0 0 0 
0 0 0 
0 0 0 
0 0 0 
0 0 0 
0 0 0 
0 0 0 
0 0 0 
0 0 0 
0 0 0 
0 0 0 
0 0 0 
0 0 0 
0 0 0 
0 0 0 
0 0 0 
0 0 0 
0 0 0 
0 0 0 
0 0 0 
0 0 0 
0 0 0 
0 0 0 
0 0 0 
0 0 0 
0 0 0 
0 0 0 
0 0 0 
0 0 0 
0 0 0 
0 0 0 
0 0 0 
0 0 0 
0 0 0 
0 0 0 
0 0 0 
0 0 0 
0 0 0 
0 0 0 
0 0 0 
0 0 0 
0 0 0 
0 0 0 
0 0 0 
0 0 0 
0 0 0 
0 0 0 
0 0 0 
0 0 0 
0 0 0 
0 0 0 
0 0 0 
0 0 0 
0 0 0 
0 0 0 
0 0 0 
0 0 0 
0 0 0 
0.9626797 0.27062687 0.0030028857 
0.96472454 0.26324376 0.003040598 
0.9670087 0.25472513 0.0030527513 
0.96924144 0.24609335 0.0030298803 
0 0 0 
0 0 0 
0 0 0 
0 0 0 
0 0 0 
0 0 0 
0 0 0 
0 0 0 
0 0 0 
0 0 0 
0 0 0 
0.96632266 0.25731695 0.0029181817 
0.96591127 0.25885597 0.0029926663 
0.966635 0.25613996 0.0030313737 
0.9676533 0.25226584 0.0030306065 
0.96931916 0.2457874 0.0030131429 
0.97187775 0.23546734 0.0029491433 
0 0 0 
0 0 0 
0 0 0 
0 0 0 
0 0 0 
0 0 0 
0 0 0 
0 0 0 
0 0 0 
0 0 0 
0.96897286 0.24714944 0.0029426045 
0.96811885 0.25047335 0.002997772 
0.9677866 0.25175422 0.0030147182 
0.9676379 0.2523248 0.0030182938 
0.9682613 0.2499221 0.0030068187 
0.9697542 0.24406557 0.0029604787 
0 0 0 
0 0 0 
0 0 0 
0 0 0 
0 0 0 
0 0 0 
0 0 0 
0 0 0 
0 0 0 
0 0 0 
0.9716515 0.2363993 0.00295159 
0.96969616 0.24429555 0.0029963292 
0.9682188 0.25008652 0.003013887 
0.96737504 0.25333062 0.0030234142 
0.96683574 0.25538176 0.0029982713 
0.9671681 0.25412014 0.0029569648 
0 0 0 
0 0 0 
0 0 0 
0 0 0 
0 0 0 
0 0 0 
0 0 0 
0 0 0 
0 0 0 
0 0 0 
0.9738728 0.22707528 0.0029387982 
0.97088706 0.23951916 0.0030037682 
0.96840066 0.24938105 0.0030311896 
0.96637493 0.2571194 0.0030238489 
0.9647507 0.26314864 0.0030075358 
0.9645594 0.26384974 0.002926781 
0 0 0 
0 0 0 
0 0 0 
0 0 0 
0 0 0 
0 0 0 
0 0 0 
0 0 0 
0 0 0 
0 0 0 
0 0 0 
0.97083515 0.23972888 0.0030226193 
0.96787095 0.2514292 0.003044579 
0.96457744 0.26378244 0.0030443985 
0.96172816 0.27398908 0.003005021 
0 0 0 
0 0 0 
0 0 0 
0 0 0 
0 0 0 
0 0 0 
0 0 0 
0 0 0 
0 0 0 
0 0 0 
0 0 0 
0 0 0 
0 0 0 
0 0 0 
0 0 0 
0 0 0 
0 0 0 
0 0 0 
0 0 0 
0 0 0 
0 0 0 
0 0 0 
0 0 0 
0 0 0 
0 0 0 
0 0 0 
0 0 0 
0 0 0 
0 0 0 
0 0 0 
0 0 0 
0 0 0 
0 0 0 
0 0 0 
0 0 0 
0 0 0 
0 0 0 
0 0 0 
0 0 0 
0 0 0 
# End: Data Text
# End: Segment
