# OOMMF: rectangular mesh v1.0
# Segment count: 1
# Begin: Segment
# Begin: Header
# Desc: Time (s) :  1.0751012260283972e-08
# Title: m
# meshtype: rectangular
# meshunit: m
# xbase: 2.5e-09
# ybase: 2.5e-09
# zbase: 2.25e-08
# xstepsize: 5e-09
# ystepsize: 5e-09
# zstepsize: 4.5e-08
# xmin: 0
# ymin: 0
# zmin: 0
# xmax: 8e-08
# ymax: 1.6e-07
# zmax: 4.5e-08
# xnodes: 16
# ynodes: 32
# znodes: 1
# ValueRangeMinMag: 1e-08
# ValueRangeMaxMag: 1
# valueunit: 
# valuemultiplier: 1
# End: Header
# Begin: Data Text
0 0 0 
0 0 0 
0 0 0 
0 0 0 
0 0 0 
0 0 0 
0 0 0 
0 0 0 
0 0 0 
0 0 0 
0 0 0 
0 0 0 
0 0 0 
0 0 0 
0 0 0 
0 0 0 
0 0 0 
0 0 0 
0 0 0 
0 0 0 
0 0 0 
0 0 0 
0 0 0 
0 0 0 
0 0 0 
0 0 0 
0 0 0 
0 0 0 
0 0 0 
0 0 0 
0 0 0 
0 0 0 
0 0 0 
0 0 0 
0 0 0 
0 0 0 
0 0 0 
0 0 0 
0 0 0 
0 0 0 
0 0 0 
0 0 0 
0 0 0 
0 0 0 
0 0 0 
0 0 0 
0 0 0 
0 0 0 
0 0 0 
0 0 0 
0 0 0 
0 0 0 
0 0 0 
0 0 0 
0 0 0 
0 0 0 
0 0 0 
0 0 0 
0 0 0 
0 0 0 
0 0 0 
0 0 0 
0 0 0 
0 0 0 
0 0 0 
0 0 0 
0 0 0 
0 0 0 
0 0 0 
0 0 0 
0 0 0 
0 0 0 
0 0 0 
0 0 0 
0 0 0 
0 0 0 
0 0 0 
0 0 0 
0 0 0 
0 0 0 
0 0 0 
0 0 0 
0 0 0 
0 0 0 
0 0 0 
0 0 0 
0 0 0 
0 0 0 
0 0 0 
0 0 0 
0 0 0 
0 0 0 
0 0 0 
0 0 0 
0 0 0 
0 0 0 
0 0 0 
0 0 0 
0 0 0 
0 0 0 
0 0 0 
0 0 0 
0.9532944 0.29896414 0.04301621 
0.95550793 0.29170993 0.043701872 
0.95802605 0.28329363 0.04394058 
0 0 0 
0 0 0 
0 0 0 
0 0 0 
0 0 0 
0 0 0 
0 0 0 
0 0 0 
0 0 0 
0 0 0 
0 0 0 
0 0 0 
0.95543945 0.29222876 0.04168817 
0.9560563 0.29006502 0.04264612 
0.95721346 0.2861127 0.043382164 
0.95916057 0.27944168 0.043856286 
0.96214867 0.26894188 0.0440485 
0 0 0 
0 0 0 
0 0 0 
0 0 0 
0 0 0 
0 0 0 
0 0 0 
0 0 0 
0 0 0 
0 0 0 
0.9602883 0.27624393 0.039187774 
0.9576474 0.28497824 0.041218042 
0.9572031 0.28629825 0.042376123 
0.9575659 0.2849629 0.043170936 
0.9584942 0.28173172 0.04377386 
0.95982665 0.2770865 0.04422722 
0 0 0 
0 0 0 
0 0 0 
0 0 0 
0 0 0 
0 0 0 
0 0 0 
0 0 0 
0 0 0 
0 0 0 
0.9614871 0.2720117 0.03939759 
0.9583695 0.2824947 0.04153 
0.95732 0.2858798 0.042559683 
0.95715094 0.28633803 0.04327352 
0.95740205 0.28541276 0.043830078 
0.9574795 0.28509364 0.044211194 
0 0 0 
0 0 0 
0 0 0 
0 0 0 
0 0 0 
0 0 0 
0 0 0 
0 0 0 
0 0 0 
0 0 0 
0 0 0 
0.9584294 0.28210416 0.042783093 
0.9570583 0.2866635 0.04316718 
0.9564129 0.28873664 0.043651715 
0.95628476 0.289105 0.044022188 
0.95628756 0.2890958 0.04401948 
0 0 0 
0 0 0 
0 0 0 
0 0 0 
0 0 0 
0 0 0 
0 0 0 
0 0 0 
0 0 0 
0 0 0 
0 0 0 
0.95945615 0.27854452 0.043091603 
0.9572987 0.28578562 0.043655112 
0.9556115 0.29131868 0.044045895 
0.9539833 0.296571 0.04428846 
0 0 0 
0 0 0 
0 0 0 
0 0 0 
0 0 0 
0 0 0 
0 0 0 
0 0 0 
0 0 0 
0 0 0 
0 0 0 
0 0 0 
0 0 0 
0 0 0 
0 0 0 
0 0 0 
0 0 0 
0 0 0 
0 0 0 
0 0 0 
0 0 0 
0 0 0 
0 0 0 
0 0 0 
0 0 0 
0 0 0 
0 0 0 
0 0 0 
0 0 0 
0 0 0 
0 0 0 
0 0 0 
0 0 0 
0 0 0 
0 0 0 
0 0 0 
0 0 0 
0 0 0 
0 0 0 
0 0 0 
0 0 0 
0 0 0 
0 0 0 
0 0 0 
0 0 0 
0.954572 0.29789364 0.0071877935 
0.9559194 0.29353908 0.0072741574 
0.95754826 0.28818363 0.007181146 
0 0 0 
0 0 0 
0 0 0 
0 0 0 
0 0 0 
0 0 0 
0 0 0 
0 0 0 
0 0 0 
0 0 0 
0 0 0 
0 0 0 
0.9598215 0.2805262 0.006913512 
0.958858 0.28379408 0.0072227833 
0.95926577 0.28241932 0.0069709006 
0.96034133 0.27873346 0.007221238 
0.9634506 0.2677954 0.006967646 
0 0 0 
0 0 0 
0 0 0 
0 0 0 
0 0 0 
0 0 0 
0 0 0 
0 0 0 
0 0 0 
0 0 0 
0.96591455 0.2587807 0.006460345 
0.9630014 0.26940763 0.006934207 
0.96169484 0.27403972 0.0067445454 
0.9608294 0.27704597 0.0072423466 
0.9612074 0.2757424 0.006822489 
0.96231353 0.27185142 0.007031915 
0 0 0 
0 0 0 
0 0 0 
0 0 0 
0 0 0 
0 0 0 
0 0 0 
0 0 0 
0 0 0 
0 0 0 
0.96780914 0.25160095 0.0065303133 
0.9651307 0.2616857 0.0065831565 
0.9629865 0.26945567 0.00711023 
0.9619042 0.273305 0.0066875042 
0.9612557 0.2755664 0.00712699 
0.96219766 0.27227017 0.006695204 
0.96640015 0.25696376 0.0063559655 
0 0 0 
0 0 0 
0 0 0 
0 0 0 
0 0 0 
0 0 0 
0 0 0 
0 0 0 
0 0 0 
0.9698815 0.24349234 0.006434934 
0.9666455 0.25602677 0.006849854 
0.96402735 0.26571888 0.006692849 
0.96164286 0.27421135 0.0071571637 
0.96059656 0.27786335 0.0067997845 
0.9593772 0.28204042 0.0069634486 
0 0 0 
0 0 0 
0 0 0 
0 0 0 
0 0 0 
0 0 0 
0 0 0 
0 0 0 
0 0 0 
0 0 0 
0 0 0 
0.967384 0.25322357 0.006791184 
0.9643974 0.26436487 0.007005205 
0.96044314 0.27838972 0.006941762 
0.95881206 0.2839536 0.0070557077 
0.9566551 0.29114333 0.0068474915 
0 0 0 
0 0 0 
0 0 0 
0 0 0 
0 0 0 
0 0 0 
0 0 0 
0 0 0 
0 0 0 
0 0 0 
0 0 0 
0 0 0 
0 0 0 
0.95531476 0.29550186 0.0072491206 
0 0 0 
0 0 0 
0 0 0 
0 0 0 
0 0 0 
0 0 0 
0 0 0 
0 0 0 
0 0 0 
0 0 0 
0 0 0 
0 0 0 
0 0 0 
0 0 0 
0 0 0 
0 0 0 
0 0 0 
0 0 0 
0 0 0 
0 0 0 
0 0 0 
0 0 0 
0 0 0 
0 0 0 
0 0 0 
0 0 0 
0 0 0 
0 0 0 
0 0 0 
0 0 0 
0 0 0 
0 0 0 
0 0 0 
0 0 0 
0 0 0 
0 0 0 
0 0 0 
0 0 0 
0 0 0 
0 0 0 
0 0 0 
0 0 0 
0 0 0 
0 0 0 
0 0 0 
0 0 0 
0 0 0 
0 0 0 
0 0 0 
0 0 0 
0 0 0 
0 0 0 
0 0 0 
0 0 0 
0 0 0 
0 0 0 
0 0 0 
0 0 0 
0 0 0 
0 0 0 
0.9541637 0.29876968 0.017558543 
0.9562091 0.2921334 0.01794984 
0.95868814 0.28388864 0.018009175 
0.96105385 0.27577347 0.018015979 
0 0 0 
0 0 0 
0 0 0 
0 0 0 
0 0 0 
0 0 0 
0 0 0 
0 0 0 
0 0 0 
0 0 0 
0 0 0 
0.958643 0.2841032 0.016998868 
0.9578072 0.28687012 0.017634599 
0.9586274 0.2841156 0.017664481 
0.95948416 0.28118625 0.018010557 
0.9615234 0.2741521 0.017706193 
0.96447253 0.26360863 0.017417144 
0 0 0 
0 0 0 
0 0 0 
0 0 0 
0 0 0 
0 0 0 
0 0 0 
0 0 0 
0 0 0 
0 0 0 
0.9614522 0.2744288 0.017278891 
0.9604521 0.27789953 0.017427148 
0.95973766 0.2803279 0.017889917 
0.9598426 0.27999014 0.01754435 
0.9603521 0.2782237 0.017761737 
0.9622943 0.27145925 0.017309723 
0 0 0 
0 0 0 
0 0 0 
0 0 0 
0 0 0 
0 0 0 
0 0 0 
0 0 0 
0 0 0 
0 0 0 
0.9644164 0.26382163 0.01729812 
0.96196675 0.27259013 0.017736599 
0.96052146 0.27765465 0.017507086 
0.95932484 0.2817402 0.017844038 
0.95907843 0.28260684 0.017375669 
0.9595033 0.28116986 0.017229948 
0 0 0 
0 0 0 
0 0 0 
0 0 0 
0 0 0 
0 0 0 
0 0 0 
0 0 0 
0 0 0 
0 0 0 
0.96675986 0.25509638 0.017356006 
0.96336 0.26763293 0.017609986 
0.96041995 0.2779807 0.017895196 
0.9584551 0.2847037 0.01754125 
0.9566418 0.29074007 0.017515855 
0.9567958 0.29026905 0.016903633 
0 0 0 
0 0 0 
0 0 0 
0 0 0 
0 0 0 
0 0 0 
0 0 0 
0 0 0 
0 0 0 
0 0 0 
0 0 0 
0.96298605 0.2689593 0.017857399 
0.9598102 0.2800826 0.017837912 
0.9562198 0.29210928 0.017773878 
0.95329285 0.30154687 0.017386127 
0 0 0 
0 0 0 
0 0 0 
0 0 0 
0 0 0 
0 0 0 
0 0 0 
0 0 0 
0 0 0 
0 0 0 
0 0 0 
0 0 0 
0 0 0 
0 0 0 
0 0 0 
0 0 0 
0 0 0 
0 0 0 
0 0 0 
0 0 0 
0 0 0 
0 0 0 
0 0 0 
0 0 0 
0 0 0 
0 0 0 
0 0 0 
0 0 0 
0 0 0 
0 0 0 
0 0 0 
0 0 0 
0 0 0 
0 0 0 
0 0 0 
0 0 0 
0 0 0 
0 0 0 
0 0 0 
0 0 0 
# End: Data Text
# End: Segment
