# OOMMF: rectangular mesh v1.0
# Segment count: 1
# Begin: Segment
# Begin: Header
# Desc: Time (s) :  5.177620496392256e-09
# Title: m
# meshtype: rectangular
# meshunit: m
# xbase: 2.5e-09
# ybase: 2.5e-09
# zbase: 2.25e-08
# xstepsize: 5e-09
# ystepsize: 5e-09
# zstepsize: 4.5e-08
# xmin: 0
# ymin: 0
# zmin: 0
# xmax: 8e-08
# ymax: 1.6e-07
# zmax: 4.5e-08
# xnodes: 16
# ynodes: 32
# znodes: 1
# ValueRangeMinMag: 1e-08
# ValueRangeMaxMag: 1
# valueunit: 
# valuemultiplier: 1
# End: Header
# Begin: Data Text
0 0 0 
0 0 0 
0 0 0 
0 0 0 
0 0 0 
0 0 0 
0 0 0 
0 0 0 
0 0 0 
0 0 0 
0 0 0 
0 0 0 
0 0 0 
0 0 0 
0 0 0 
0 0 0 
0 0 0 
0 0 0 
0 0 0 
0 0 0 
0 0 0 
0 0 0 
0 0 0 
0 0 0 
0 0 0 
0 0 0 
0 0 0 
0 0 0 
0 0 0 
0 0 0 
0 0 0 
0 0 0 
0 0 0 
0 0 0 
0 0 0 
0 0 0 
0 0 0 
0 0 0 
0 0 0 
0 0 0 
0 0 0 
0 0 0 
0 0 0 
0 0 0 
0 0 0 
0 0 0 
0 0 0 
0 0 0 
0 0 0 
0 0 0 
0 0 0 
0 0 0 
0 0 0 
0 0 0 
0 0 0 
0 0 0 
0 0 0 
0 0 0 
0 0 0 
0 0 0 
0 0 0 
0 0 0 
0 0 0 
0 0 0 
0 0 0 
0 0 0 
0 0 0 
0 0 0 
0 0 0 
0 0 0 
0 0 0 
0 0 0 
0 0 0 
0 0 0 
0 0 0 
0 0 0 
0 0 0 
0 0 0 
0 0 0 
0 0 0 
0 0 0 
0 0 0 
0 0 0 
0 0 0 
0 0 0 
0 0 0 
0 0 0 
0 0 0 
0 0 0 
0 0 0 
0 0 0 
0 0 0 
0 0 0 
0 0 0 
0 0 0 
0 0 0 
0 0 0 
0 0 0 
0 0 0 
0 0 0 
0 0 0 
0 0 0 
0.9636782 0.26703283 0.0042121364 
0.9658319 0.25913492 0.0042338786 
0.96820104 0.25013798 0.00420163 
0 0 0 
0 0 0 
0 0 0 
0 0 0 
0 0 0 
0 0 0 
0 0 0 
0 0 0 
0 0 0 
0 0 0 
0 0 0 
0 0 0 
0.96500945 0.2621829 0.004118162 
0.9658822 0.2589484 0.004182332 
0.96715415 0.2541561 0.004184246 
0.9690048 0.2470068 0.0041855695 
0.9716848 0.23624471 0.004144213 
0 0 0 
0 0 0 
0 0 0 
0 0 0 
0 0 0 
0 0 0 
0 0 0 
0 0 0 
0 0 0 
0 0 0 
0.9687432 0.24803583 0.0038636723 
0.96687764 0.25520802 0.004061336 
0.9668364 0.25536355 0.0041247713 
0.9673675 0.25334328 0.004181959 
0.96835387 0.24954647 0.0041734404 
0.9696136 0.24460578 0.0041941954 
0 0 0 
0 0 0 
0 0 0 
0 0 0 
0 0 0 
0 0 0 
0 0 0 
0 0 0 
0 0 0 
0 0 0 
0.9698796 0.24355417 0.0038690853 
0.96764535 0.25228193 0.0040482394 
0.96697974 0.25481966 0.004146971 
0.9670345 0.2546112 0.004167507 
0.9673582 0.25337797 0.0042168023 
0.96749145 0.25286865 0.004222999 
0 0 0 
0 0 0 
0 0 0 
0 0 0 
0 0 0 
0 0 0 
0 0 0 
0 0 0 
0 0 0 
0 0 0 
0 0 0 
0.96806777 0.25065488 0.0041350997 
0.96693313 0.25499633 0.0041639553 
0.9664452 0.25683817 0.0042252922 
0.9664001 0.25700793 0.0042385813 
0.9663186 0.2573141 0.0042352015 
0 0 0 
0 0 0 
0 0 0 
0 0 0 
0 0 0 
0 0 0 
0 0 0 
0 0 0 
0 0 0 
0 0 0 
0 0 0 
0.96922535 0.24614075 0.004125796 
0.9673205 0.2535221 0.0042024134 
0.96583456 0.2591248 0.004250898 
0.9644239 0.26432577 0.004291051 
0 0 0 
0 0 0 
0 0 0 
0 0 0 
0 0 0 
0 0 0 
0 0 0 
0 0 0 
0 0 0 
0 0 0 
0 0 0 
0 0 0 
0 0 0 
0 0 0 
0 0 0 
0 0 0 
0 0 0 
0 0 0 
0 0 0 
0 0 0 
0 0 0 
0 0 0 
0 0 0 
0 0 0 
0 0 0 
0 0 0 
0 0 0 
0 0 0 
0 0 0 
0 0 0 
0 0 0 
0 0 0 
0 0 0 
0 0 0 
0 0 0 
0 0 0 
0 0 0 
0 0 0 
0 0 0 
0 0 0 
0 0 0 
0 0 0 
0 0 0 
0 0 0 
0 0 0 
0.96001416 0.27991706 0.0043944987 
0.9613901 0.2751536 0.004441365 
0.96285933 0.26996788 0.0043945536 
0 0 0 
0 0 0 
0 0 0 
0 0 0 
0 0 0 
0 0 0 
0 0 0 
0 0 0 
0 0 0 
0 0 0 
0 0 0 
0 0 0 
0.9645389 0.2639077 0.0041732197 
0.9639553 0.2660288 0.004362444 
0.9641157 0.26544872 0.0042565954 
0.96537465 0.2608306 0.004385148 
0.968061 0.25067908 0.0042456877 
0 0 0 
0 0 0 
0 0 0 
0 0 0 
0 0 0 
0 0 0 
0 0 0 
0 0 0 
0 0 0 
0 0 0 
0.9699686 0.2431999 0.0038407245 
0.967583 0.25251955 0.004133124 
0.96616286 0.2579004 0.0040820404 
0.96580094 0.25924838 0.004357368 
0.9657526 0.25943136 0.0041686767 
0.96697587 0.25483245 0.0042754714 
0 0 0 
0 0 0 
0 0 0 
0 0 0 
0 0 0 
0 0 0 
0 0 0 
0 0 0 
0 0 0 
0 0 0 
0.9718352 0.23563018 0.0038539688 
0.9692992 0.24585293 0.0039276695 
0.9677158 0.25200865 0.00423272 
0.9662761 0.25747615 0.0040652696 
0.9660411 0.25835282 0.004310354 
0.96652466 0.25654107 0.004102472 
0.97028077 0.24195084 0.0038907814 
0 0 0 
0 0 0 
0 0 0 
0 0 0 
0 0 0 
0 0 0 
0 0 0 
0 0 0 
0 0 0 
0.9737291 0.22767812 0.0037875639 
0.97096944 0.23916946 0.004041066 
0.9683111 0.24971505 0.00401432 
0.96643513 0.25687477 0.0042958227 
0.96505773 0.2620046 0.0041571925 
0.9640237 0.2657823 0.004256662 
0 0 0 
0 0 0 
0 0 0 
0 0 0 
0 0 0 
0 0 0 
0 0 0 
0 0 0 
0 0 0 
0 0 0 
0 0 0 
0.971626 0.23648834 0.0040178928 
0.9689265 0.24731365 0.004170817 
0.9650973 0.26185796 0.0042036753 
0.96357805 0.2673931 0.0042950907 
0.9613408 0.27532938 0.00420769 
0 0 0 
0 0 0 
0 0 0 
0 0 0 
0 0 0 
0 0 0 
0 0 0 
0 0 0 
0 0 0 
0 0 0 
0 0 0 
0 0 0 
0 0 0 
0.9606973 0.2775635 0.004388591 
0 0 0 
0 0 0 
0 0 0 
0 0 0 
0 0 0 
0 0 0 
0 0 0 
0 0 0 
0 0 0 
0 0 0 
0 0 0 
0 0 0 
0 0 0 
0 0 0 
0 0 0 
0 0 0 
0 0 0 
0 0 0 
0 0 0 
0 0 0 
0 0 0 
0 0 0 
0 0 0 
0 0 0 
0 0 0 
0 0 0 
0 0 0 
0 0 0 
0 0 0 
0 0 0 
0 0 0 
0 0 0 
0 0 0 
0 0 0 
0 0 0 
0 0 0 
0 0 0 
0 0 0 
0 0 0 
0 0 0 
0 0 0 
0 0 0 
0 0 0 
0 0 0 
0 0 0 
0 0 0 
0 0 0 
0 0 0 
0 0 0 
0 0 0 
0 0 0 
0 0 0 
0 0 0 
0 0 0 
0 0 0 
0 0 0 
0 0 0 
0 0 0 
0 0 0 
0 0 0 
0.9626959 0.27056953 0.0029554956 
0.9646976 0.26334372 0.002930894 
0.9670355 0.2546237 0.0030206756 
0.96922797 0.24614738 0.0029360214 
0 0 0 
0 0 0 
0 0 0 
0 0 0 
0 0 0 
0 0 0 
0 0 0 
0 0 0 
0 0 0 
0 0 0 
0 0 0 
0.96633816 0.2572594 0.0028735327 
0.96585673 0.2590613 0.0028462033 
0.96671253 0.25584668 0.003075501 
0.9675786 0.25255442 0.0028438263 
0.96936953 0.24558806 0.0030246482 
0.9718647 0.23552255 0.0028587708 
0 0 0 
0 0 0 
0 0 0 
0 0 0 
0 0 0 
0 0 0 
0 0 0 
0 0 0 
0 0 0 
0 0 0 
0.96894664 0.2472537 0.0028366987 
0.9681957 0.25017586 0.0030448851 
0.9676808 0.25216284 0.0027830924 
0.96774304 0.25192022 0.0031141473 
0.968188 0.25020832 0.0028188215 
0.9697795 0.24396549 0.0029357907 
0 0 0 
0 0 0 
0 0 0 
0 0 0 
0 0 0 
0 0 0 
0 0 0 
0 0 0 
0 0 0 
0 0 0 
0.9716773 0.23629346 0.0029245855 
0.9696218 0.24459292 0.0028108899 
0.96832484 0.24967441 0.0031114463 
0.9672697 0.2537356 0.0027859118 
0.96691155 0.2550937 0.0030538193 
0.9671425 0.25421864 0.00284853 
0 0 0 
0 0 0 
0 0 0 
0 0 0 
0 0 0 
0 0 0 
0 0 0 
0 0 0 
0 0 0 
0 0 0 
0.9738598 0.22713225 0.0028490827 
0.9709382 0.23931152 0.0030179701 
0.9683255 0.2496755 0.0028401979 
0.96645254 0.2568272 0.0030784437 
0.9646969 0.2633474 0.002854419 
0.9645748 0.26379353 0.0028871116 
0 0 0 
0 0 0 
0 0 0 
0 0 0 
0 0 0 
0 0 0 
0 0 0 
0 0 0 
0 0 0 
0 0 0 
0 0 0 
0.97082156 0.23978515 0.00292936 
0.9678978 0.251326 0.0030167946 
0.9645505 0.26388207 0.0029315946 
0.96174437 0.27393243 0.0029615941 
0 0 0 
0 0 0 
0 0 0 
0 0 0 
0 0 0 
0 0 0 
0 0 0 
0 0 0 
0 0 0 
0 0 0 
0 0 0 
0 0 0 
0 0 0 
0 0 0 
0 0 0 
0 0 0 
0 0 0 
0 0 0 
0 0 0 
0 0 0 
0 0 0 
0 0 0 
0 0 0 
0 0 0 
0 0 0 
0 0 0 
0 0 0 
0 0 0 
0 0 0 
0 0 0 
0 0 0 
0 0 0 
0 0 0 
0 0 0 
0 0 0 
0 0 0 
0 0 0 
0 0 0 
0 0 0 
0 0 0 
# End: Data Text
# End: Segment
