# OOMMF: rectangular mesh v1.0
# Segment count: 1
# Begin: Segment
# Begin: Header
# Desc: Time (s) :  1.2603994321445359e-08
# Title: m
# meshtype: rectangular
# meshunit: m
# xbase: 2.5e-09
# ybase: 2.5e-09
# zbase: 2.25e-08
# xstepsize: 5e-09
# ystepsize: 5e-09
# zstepsize: 4.5e-08
# xmin: 0
# ymin: 0
# zmin: 0
# xmax: 8e-08
# ymax: 1.6e-07
# zmax: 4.5e-08
# xnodes: 16
# ynodes: 32
# znodes: 1
# ValueRangeMinMag: 1e-08
# ValueRangeMaxMag: 1
# valueunit: 
# valuemultiplier: 1
# End: Header
# Begin: Data Text
0 0 0 
0 0 0 
0 0 0 
0 0 0 
0 0 0 
0 0 0 
0 0 0 
0 0 0 
0 0 0 
0 0 0 
0 0 0 
0 0 0 
0 0 0 
0 0 0 
0 0 0 
0 0 0 
0 0 0 
0 0 0 
0 0 0 
0 0 0 
0 0 0 
0 0 0 
0 0 0 
0 0 0 
0 0 0 
0 0 0 
0 0 0 
0 0 0 
0 0 0 
0 0 0 
0 0 0 
0 0 0 
0 0 0 
0 0 0 
0 0 0 
0 0 0 
0 0 0 
0 0 0 
0 0 0 
0 0 0 
0 0 0 
0 0 0 
0 0 0 
0 0 0 
0 0 0 
0 0 0 
0 0 0 
0 0 0 
0 0 0 
0 0 0 
0 0 0 
0 0 0 
0 0 0 
0 0 0 
0 0 0 
0 0 0 
0 0 0 
0 0 0 
0 0 0 
0 0 0 
0 0 0 
0 0 0 
0 0 0 
0 0 0 
0 0 0 
0 0 0 
0 0 0 
0 0 0 
0 0 0 
0 0 0 
0 0 0 
0 0 0 
0 0 0 
0 0 0 
0 0 0 
0 0 0 
0 0 0 
0 0 0 
0 0 0 
0 0 0 
0 0 0 
0 0 0 
0 0 0 
0 0 0 
0 0 0 
0 0 0 
0 0 0 
0 0 0 
0 0 0 
0 0 0 
0 0 0 
0 0 0 
0 0 0 
0 0 0 
0 0 0 
0 0 0 
0 0 0 
0 0 0 
0 0 0 
0 0 0 
0 0 0 
0 0 0 
0.9925313 0.121266074 0.013272137 
0.99367154 0.11151999 0.013424875 
0.9947851 0.101105206 0.013433825 
0 0 0 
0 0 0 
0 0 0 
0 0 0 
0 0 0 
0 0 0 
0 0 0 
0 0 0 
0 0 0 
0 0 0 
0 0 0 
0 0 0 
0.9922691 0.12343863 0.012845063 
0.99309784 0.116554126 0.013112433 
0.9938967 0.10951016 0.013297678 
0.9947776 0.10118393 0.013388348 
0.99580455 0.09052268 0.013377792 
0 0 0 
0 0 0 
0 0 0 
0 0 0 
0 0 0 
0 0 0 
0 0 0 
0 0 0 
0 0 0 
0 0 0 
0.9931426 0.11629169 0.011999527 
0.9930179 0.11728434 0.012647218 
0.993416 0.11382356 0.012993964 
0.9938877 0.10960146 0.013216911 
0.9944142 0.10469824 0.013372213 
0.9949912 0.09905106 0.013477246 
0 0 0 
0 0 0 
0 0 0 
0 0 0 
0 0 0 
0 0 0 
0 0 0 
0 0 0 
0 0 0 
0 0 0 
0.993754 0.11094219 0.01202822 
0.993532 0.112841174 0.012698098 
0.99358535 0.1123329 0.013020248 
0.9937834 0.110540874 0.013237403 
0.9940126 0.10844059 0.013401686 
0.9940828 0.10778122 0.013517454 
0 0 0 
0 0 0 
0 0 0 
0 0 0 
0 0 0 
0 0 0 
0 0 0 
0 0 0 
0 0 0 
0 0 0 
0 0 0 
0.9942247 0.10652539 0.013026207 
0.993803 0.11037227 0.01317331 
0.9936773 0.111478314 0.013341488 
0.9936626 0.11159446 0.013467347 
0.99343383 0.113611385 0.0134817 
0 0 0 
0 0 0 
0 0 0 
0 0 0 
0 0 0 
0 0 0 
0 0 0 
0 0 0 
0 0 0 
0 0 0 
0 0 0 
0.9950512 0.098501086 0.013060979 
0.994246 0.10629467 0.013283391 
0.9935718 0.11240158 0.013451823 
0.99300444 0.11729488 0.013568481 
0 0 0 
0 0 0 
0 0 0 
0 0 0 
0 0 0 
0 0 0 
0 0 0 
0 0 0 
0 0 0 
0 0 0 
0 0 0 
0 0 0 
0 0 0 
0 0 0 
0 0 0 
0 0 0 
0 0 0 
0 0 0 
0 0 0 
0 0 0 
0 0 0 
0 0 0 
0 0 0 
0 0 0 
0 0 0 
0 0 0 
0 0 0 
0 0 0 
0 0 0 
0 0 0 
0 0 0 
0 0 0 
0 0 0 
0 0 0 
0 0 0 
0 0 0 
0 0 0 
0 0 0 
0 0 0 
0 0 0 
0 0 0 
0 0 0 
0 0 0 
0 0 0 
0 0 0 
0.99269307 0.11796287 0.025400752 
0.9933273 0.11246719 0.025532547 
0.9940104 0.10627447 0.025475848 
0 0 0 
0 0 0 
0 0 0 
0 0 0 
0 0 0 
0 0 0 
0 0 0 
0 0 0 
0 0 0 
0 0 0 
0 0 0 
0 0 0 
0.9934006 0.11208661 0.02432805 
0.99354595 0.11065107 0.02495765 
0.9938148 0.10821519 0.024933014 
0.99426615 0.103937864 0.025134671 
0.9951148 0.09558904 0.024681754 
0 0 0 
0 0 0 
0 0 0 
0 0 0 
0 0 0 
0 0 0 
0 0 0 
0 0 0 
0 0 0 
0 0 0 
0.99477375 0.09954788 0.022704277 
0.9943578 0.103351675 0.023897346 
0.9941812 0.104970664 0.024183216 
0.99404174 0.106157325 0.024734031 
0.9940867 0.10579721 0.024468902 
0.99440616 0.10273549 0.024535237 
0 0 0 
0 0 0 
0 0 0 
0 0 0 
0 0 0 
0 0 0 
0 0 0 
0 0 0 
0 0 0 
0 0 0 
0.9955683 0.09125286 0.022730844 
0.99506307 0.0964301 0.023467807 
0.9945722 0.10119135 0.02421638 
0.9941643 0.10515673 0.02407313 
0.9938541 0.107983366 0.024364317 
0.9937996 0.10862557 0.023724094 
0.99440557 0.10326194 0.022238228 
0 0 0 
0 0 0 
0 0 0 
0 0 0 
0 0 0 
0 0 0 
0 0 0 
0 0 0 
0 0 0 
0.9963488 0.08232438 0.02262379 
0.99570245 0.08953583 0.023663918 
0.9949025 0.09797101 0.023891564 
0.9941252 0.10545386 0.024386946 
0.99347377 0.11148836 0.024088493 
0.9927264 0.11796548 0.024052463 
0 0 0 
0 0 0 
0 0 0 
0 0 0 
0 0 0 
0 0 0 
0 0 0 
0 0 0 
0 0 0 
0 0 0 
0 0 0 
0.99622166 0.08350446 0.02386093 
0.995212 0.09468155 0.024257302 
0.99391085 0.10744849 0.024416381 
0.9928043 0.11725488 0.024311464 
0.991489 0.12799497 0.023812838 
0 0 0 
0 0 0 
0 0 0 
0 0 0 
0 0 0 
0 0 0 
0 0 0 
0 0 0 
0 0 0 
0 0 0 
0 0 0 
0 0 0 
0 0 0 
0.99317044 0.113938615 0.02511058 
0 0 0 
0 0 0 
0 0 0 
0 0 0 
0 0 0 
0 0 0 
0 0 0 
0 0 0 
0 0 0 
0 0 0 
0 0 0 
0 0 0 
0 0 0 
0 0 0 
0 0 0 
0 0 0 
0 0 0 
0 0 0 
0 0 0 
0 0 0 
0 0 0 
0 0 0 
0 0 0 
0 0 0 
0 0 0 
0 0 0 
0 0 0 
0 0 0 
0 0 0 
0 0 0 
0 0 0 
0 0 0 
0 0 0 
0 0 0 
0 0 0 
0 0 0 
0 0 0 
0 0 0 
0 0 0 
0 0 0 
0 0 0 
0 0 0 
0 0 0 
0 0 0 
0 0 0 
0 0 0 
0 0 0 
0 0 0 
0 0 0 
0 0 0 
0 0 0 
0 0 0 
0 0 0 
0 0 0 
0 0 0 
0 0 0 
0 0 0 
0 0 0 
0 0 0 
0 0 0 
0.99612105 0.087991886 -0.0005898654 
0.99693173 0.078274444 -0.00041077807 
0.9977216 0.06746317 -0.00063631585 
0.99832976 0.05777101 -0.0004371019 
0 0 0 
0 0 0 
0 0 0 
0 0 0 
0 0 0 
0 0 0 
0 0 0 
0 0 0 
0 0 0 
0 0 0 
0 0 0 
0.9964765 0.08387074 -0.00051961537 
0.9967793 0.080193125 -0.0002531613 
0.9972381 0.07426741 -0.00083636417 
0.99756104 0.06979963 -0.00015516639 
0.99799657 0.0632639 -0.00070871843 
0.99837565 0.056973025 -0.00037518848 
0 0 0 
0 0 0 
0 0 0 
0 0 0 
0 0 0 
0 0 0 
0 0 0 
0 0 0 
0 0 0 
0 0 0 
0.99732864 0.07304467 -0.00031680983 
0.997391 0.07218407 -0.00079541473 
0.99738556 0.072264366 1.2971432e-06 
0.9974187 0.071798414 -0.0009444221 
0.9974675 0.07112335 -0.00012328912 
0.9976864 0.0679824 -0.0005578289 
0 0 0 
0 0 0 
0 0 0 
0 0 0 
0 0 0 
0 0 0 
0 0 0 
0 0 0 
0 0 0 
0 0 0 
0.99814653 0.060853437 -0.0005259827 
0.9978079 0.06617765 -9.5715506e-05 
0.9975247 0.070311986 -0.00092713686 
0.99721193 0.07462254 8.58876e-06 
0.9969647 0.07785187 -0.0007987127 
0.99674195 0.08065555 -0.00032695816 
0 0 0 
0 0 0 
0 0 0 
0 0 0 
0 0 0 
0 0 0 
0 0 0 
0 0 0 
0 0 0 
0 0 0 
0.9987432 0.050119188 -0.00032493504 
0.9982553 0.059040893 -0.0006598802 
0.99760616 0.069151916 -0.000112476584 
0.99699366 0.07747955 -0.00080657064 
0.99624825 0.08654143 -0.0002327076 
0.9957611 0.09197635 -0.000512022 
0 0 0 
0 0 0 
0 0 0 
0 0 0 
0 0 0 
0 0 0 
0 0 0 
0 0 0 
0 0 0 
0 0 0 
0 0 0 
0.99850076 0.054736134 -0.00036971585 
0.9977157 0.06754977 -0.0005766338 
0.9966198 0.08215209 -0.00035990926 
0.99551785 0.09457192 -0.0005484454 
0 0 0 
0 0 0 
0 0 0 
0 0 0 
0 0 0 
0 0 0 
0 0 0 
0 0 0 
0 0 0 
0 0 0 
0 0 0 
0 0 0 
0 0 0 
0 0 0 
0 0 0 
0 0 0 
0 0 0 
0 0 0 
0 0 0 
0 0 0 
0 0 0 
0 0 0 
0 0 0 
0 0 0 
0 0 0 
0 0 0 
0 0 0 
0 0 0 
0 0 0 
0 0 0 
0 0 0 
0 0 0 
0 0 0 
0 0 0 
0 0 0 
0 0 0 
0 0 0 
0 0 0 
0 0 0 
0 0 0 
# End: Data Text
# End: Segment
