# OOMMF: rectangular mesh v1.0
# Segment count: 1
# Begin: Segment
# Begin: Header
# Desc: Time (s) :  3.471877396572048e-09
# Title: m
# meshtype: rectangular
# meshunit: m
# xbase: 2.5e-09
# ybase: 2.5e-09
# zbase: 2.25e-08
# xstepsize: 5e-09
# ystepsize: 5e-09
# zstepsize: 4.5e-08
# xmin: 0
# ymin: 0
# zmin: 0
# xmax: 8e-08
# ymax: 1.6e-07
# zmax: 4.5e-08
# xnodes: 16
# ynodes: 32
# znodes: 1
# ValueRangeMinMag: 1e-08
# ValueRangeMaxMag: 1
# valueunit: 
# valuemultiplier: 1
# End: Header
# Begin: Data Text
0 0 0 
0 0 0 
0 0 0 
0 0 0 
0 0 0 
0 0 0 
0 0 0 
0 0 0 
0 0 0 
0 0 0 
0 0 0 
0 0 0 
0 0 0 
0 0 0 
0 0 0 
0 0 0 
0 0 0 
0 0 0 
0 0 0 
0 0 0 
0 0 0 
0 0 0 
0 0 0 
0 0 0 
0 0 0 
0 0 0 
0 0 0 
0 0 0 
0 0 0 
0 0 0 
0 0 0 
0 0 0 
0 0 0 
0 0 0 
0 0 0 
0 0 0 
0 0 0 
0 0 0 
0 0 0 
0 0 0 
0 0 0 
0 0 0 
0 0 0 
0 0 0 
0 0 0 
0 0 0 
0 0 0 
0 0 0 
0 0 0 
0 0 0 
0 0 0 
0 0 0 
0 0 0 
0 0 0 
0 0 0 
0 0 0 
0 0 0 
0 0 0 
0 0 0 
0 0 0 
0 0 0 
0 0 0 
0 0 0 
0 0 0 
0 0 0 
0 0 0 
0 0 0 
0 0 0 
0 0 0 
0 0 0 
0 0 0 
0 0 0 
0 0 0 
0 0 0 
0 0 0 
0 0 0 
0 0 0 
0 0 0 
0 0 0 
0 0 0 
0 0 0 
0 0 0 
0 0 0 
0 0 0 
0 0 0 
0 0 0 
0 0 0 
0 0 0 
0 0 0 
0 0 0 
0 0 0 
0 0 0 
0 0 0 
0 0 0 
0 0 0 
0 0 0 
0 0 0 
0 0 0 
0 0 0 
0 0 0 
0 0 0 
0 0 0 
0.9957204 0.09241553 0.00046043884 
0.99660635 0.082314044 0.0004428031 
0.99742943 0.07165453 0.0004295149 
0 0 0 
0 0 0 
0 0 0 
0 0 0 
0 0 0 
0 0 0 
0 0 0 
0 0 0 
0 0 0 
0 0 0 
0 0 0 
0 0 0 
0.9953438 0.09638706 0.00047039514 
0.99606526 0.08862237 0.0004507351 
0.99671525 0.08098525 0.00045035098 
0.99737436 0.072417386 0.00041820298 
0.9980867 0.061829392 0.00041046937 
0 0 0 
0 0 0 
0 0 0 
0 0 0 
0 0 0 
0 0 0 
0 0 0 
0 0 0 
0 0 0 
0 0 0 
0.99583167 0.09120969 0.00044719683 
0.99588317 0.09064625 0.0004510595 
0.99627995 0.08617499 0.0004628782 
0.99668413 0.08136772 0.00042859768 
0.99710083 0.07609167 0.0004376739 
0.9975257 0.07030288 0.0004171832 
0 0 0 
0 0 0 
0 0 0 
0 0 0 
0 0 0 
0 0 0 
0 0 0 
0 0 0 
0 0 0 
0 0 0 
0.9963168 0.0857478 0.00043855622 
0.9963018 0.085922465 0.00045495303 
0.9964172 0.08457365 0.00043549505 
0.9966147 0.0822133 0.0004539075 
0.9968082 0.07983295 0.00042727654 
0.9968724 0.07902781 0.00043682955 
0 0 0 
0 0 0 
0 0 0 
0 0 0 
0 0 0 
0 0 0 
0 0 0 
0 0 0 
0 0 0 
0 0 0 
0 0 0 
0.9969075 0.078583874 0.00043505192 
0.99662286 0.08211435 0.0004496492 
0.9965568 0.08291256 0.00043531656 
0.9965627 0.08284138 0.0004508452 
0.99637204 0.08510395 0.0004395437 
0 0 0 
0 0 0 
0 0 0 
0 0 0 
0 0 0 
0 0 0 
0 0 0 
0 0 0 
0 0 0 
0 0 0 
0 0 0 
0.9975554 0.069879726 0.00042743972 
0.9969885 0.07754931 0.00043476888 
0.99650586 0.08352222 0.0004500752 
0.99610376 0.08818728 0.00045140422 
0 0 0 
0 0 0 
0 0 0 
0 0 0 
0 0 0 
0 0 0 
0 0 0 
0 0 0 
0 0 0 
0 0 0 
0 0 0 
0 0 0 
0 0 0 
0 0 0 
0 0 0 
0 0 0 
0 0 0 
0 0 0 
0 0 0 
0 0 0 
0 0 0 
0 0 0 
0 0 0 
0 0 0 
0 0 0 
0 0 0 
0 0 0 
0 0 0 
0 0 0 
0 0 0 
0 0 0 
0 0 0 
0 0 0 
0 0 0 
0 0 0 
0 0 0 
0 0 0 
0 0 0 
0 0 0 
0 0 0 
0 0 0 
0 0 0 
0 0 0 
0 0 0 
0 0 0 
0.9956534 0.093135394 0.00043524997 
0.99617046 0.087430924 0.00044533232 
0.99669385 0.08124733 0.00042458373 
0 0 0 
0 0 0 
0 0 0 
0 0 0 
0 0 0 
0 0 0 
0 0 0 
0 0 0 
0 0 0 
0 0 0 
0 0 0 
0 0 0 
0.9959935 0.0894244 0.00040792456 
0.9962096 0.08698441 0.0004498413 
0.9964169 0.08457725 0.00039912187 
0.99679387 0.08001125 0.0004450639 
0.9973801 0.07233917 0.0004083164 
0 0 0 
0 0 0 
0 0 0 
0 0 0 
0 0 0 
0 0 0 
0 0 0 
0 0 0 
0 0 0 
0 0 0 
0.99689263 0.0787718 0.0003618041 
0.9966968 0.08121211 0.000417698 
0.9965909 0.08250096 0.00037049846 
0.99655664 0.082913995 0.00046113375 
0.996548 0.083017714 0.00038992942 
0.9968018 0.07991365 0.0004360859 
0 0 0 
0 0 0 
0 0 0 
0 0 0 
0 0 0 
0 0 0 
0 0 0 
0 0 0 
0 0 0 
0 0 0 
0.99751663 0.07043164 0.00036422812 
0.9971901 0.07491177 0.00034857367 
0.9968977 0.078707084 0.00043862237 
0.99655247 0.08296517 0.0003673546 
0.99634635 0.085404046 0.00046315265 
0.9962159 0.086912215 0.00041041017 
0.99654305 0.08307745 0.0004093411 
0 0 0 
0 0 0 
0 0 0 
0 0 0 
0 0 0 
0 0 0 
0 0 0 
0 0 0 
0 0 0 
0.99809855 0.06163795 0.00033714238 
0.9976981 0.06781214 0.00038543396 
0.9970984 0.07612281 0.0003551169 
0.99655396 0.08294674 0.00045084456 
0.9959861 0.08950767 0.00040777694 
0.9953771 0.09604329 0.0004606844 
0 0 0 
0 0 0 
0 0 0 
0 0 0 
0 0 0 
0 0 0 
0 0 0 
0 0 0 
0 0 0 
0 0 0 
0 0 0 
0.99810153 0.061588693 0.0003554975 
0.9973704 0.072471894 0.00039903304 
0.99638116 0.08499718 0.00040001632 
0.9954702 0.095073104 0.0004565492 
0.9943389 0.106254034 0.0004551827 
0 0 0 
0 0 0 
0 0 0 
0 0 0 
0 0 0 
0 0 0 
0 0 0 
0 0 0 
0 0 0 
0 0 0 
0 0 0 
0 0 0 
0 0 0 
0.99595135 0.08989395 0.00043158405 
0 0 0 
0 0 0 
0 0 0 
0 0 0 
0 0 0 
0 0 0 
0 0 0 
0 0 0 
0 0 0 
0 0 0 
0 0 0 
0 0 0 
0 0 0 
0 0 0 
0 0 0 
0 0 0 
0 0 0 
0 0 0 
0 0 0 
0 0 0 
0 0 0 
0 0 0 
0 0 0 
0 0 0 
0 0 0 
0 0 0 
0 0 0 
0 0 0 
0 0 0 
0 0 0 
0 0 0 
0 0 0 
0 0 0 
0 0 0 
0 0 0 
0 0 0 
0 0 0 
0 0 0 
0 0 0 
0 0 0 
0 0 0 
0 0 0 
0 0 0 
0 0 0 
0 0 0 
0 0 0 
0 0 0 
0 0 0 
0 0 0 
0 0 0 
0 0 0 
0 0 0 
0 0 0 
0 0 0 
0 0 0 
0 0 0 
0 0 0 
0 0 0 
0 0 0 
0 0 0 
0.99467343 0.10303054 0.0030839078 
0.9956369 0.0932645 0.0029840644 
0.9965637 0.08276848 0.0031944916 
0.997334 0.07290913 0.0030346797 
0 0 0 
0 0 0 
0 0 0 
0 0 0 
0 0 0 
0 0 0 
0 0 0 
0 0 0 
0 0 0 
0 0 0 
0 0 0 
0.9951666 0.09815515 0.0030080914 
0.9955095 0.09461957 0.002841808 
0.9959857 0.08945135 0.0033372024 
0.99643177 0.08435626 0.0028055327 
0.9969254 0.07828927 0.0032549624 
0.99744856 0.071328305 0.0029505875 
0 0 0 
0 0 0 
0 0 0 
0 0 0 
0 0 0 
0 0 0 
0 0 0 
0 0 0 
0 0 0 
0 0 0 
0.9961858 0.08720913 0.0028976458 
0.99619126 0.0871332 0.0033111044 
0.9962428 0.086562954 0.002676105 
0.996199 0.08703886 0.0034375929 
0.99634033 0.08543021 0.0027726844 
0.99659175 0.08243423 0.003095904 
0 0 0 
0 0 0 
0 0 0 
0 0 0 
0 0 0 
0 0 0 
0 0 0 
0 0 0 
0 0 0 
0 0 0 
0.9971522 0.07535162 0.0031055964 
0.99674857 0.08052737 0.002776788 
0.996325 0.08558498 0.0034356785 
0.9960337 0.08893725 0.0026666336 
0.9956793 0.09280113 0.0032965364 
0.9954914 0.09480871 0.0028803477 
0 0 0 
0 0 0 
0 0 0 
0 0 0 
0 0 0 
0 0 0 
0 0 0 
0 0 0 
0 0 0 
0 0 0 
0.99791014 0.0645492 0.0029534826 
0.9972416 0.074153304 0.0032498187 
0.9964798 0.08378648 0.0027917319 
0.99568623 0.09272577 0.003318537 
0.9948817 0.101007394 0.0028181782 
0.9943324 0.10627485 0.0029853366 
0 0 0 
0 0 0 
0 0 0 
0 0 0 
0 0 0 
0 0 0 
0 0 0 
0 0 0 
0 0 0 
0 0 0 
0 0 0 
0.99754256 0.069998614 0.0030176963 
0.99654686 0.08297195 0.003172835 
0.99525666 0.09723885 0.0029568889 
0.99396163 0.10968635 0.0030548763 
0 0 0 
0 0 0 
0 0 0 
0 0 0 
0 0 0 
0 0 0 
0 0 0 
0 0 0 
0 0 0 
0 0 0 
0 0 0 
0 0 0 
0 0 0 
0 0 0 
0 0 0 
0 0 0 
0 0 0 
0 0 0 
0 0 0 
0 0 0 
0 0 0 
0 0 0 
0 0 0 
0 0 0 
0 0 0 
0 0 0 
0 0 0 
0 0 0 
0 0 0 
0 0 0 
0 0 0 
0 0 0 
0 0 0 
0 0 0 
0 0 0 
0 0 0 
0 0 0 
0 0 0 
0 0 0 
0 0 0 
# End: Data Text
# End: Segment
