# OOMMF: rectangular mesh v1.0
# Segment count: 1
# Begin: Segment
# Begin: Header
# Desc: Time (s) :  6.045294736691554e-09
# Title: m
# meshtype: rectangular
# meshunit: m
# xbase: 2.5e-09
# ybase: 2.5e-09
# zbase: 2.25e-08
# xstepsize: 5e-09
# ystepsize: 5e-09
# zstepsize: 4.5e-08
# xmin: 0
# ymin: 0
# zmin: 0
# xmax: 8e-08
# ymax: 1.6e-07
# zmax: 4.5e-08
# xnodes: 16
# ynodes: 32
# znodes: 1
# ValueRangeMinMag: 1e-08
# ValueRangeMaxMag: 1
# valueunit: 
# valuemultiplier: 1
# End: Header
# Begin: Data Text
0 0 0 
0 0 0 
0 0 0 
0 0 0 
0 0 0 
0 0 0 
0 0 0 
0 0 0 
0 0 0 
0 0 0 
0 0 0 
0 0 0 
0 0 0 
0 0 0 
0 0 0 
0 0 0 
0 0 0 
0 0 0 
0 0 0 
0 0 0 
0 0 0 
0 0 0 
0 0 0 
0 0 0 
0 0 0 
0 0 0 
0 0 0 
0 0 0 
0 0 0 
0 0 0 
0 0 0 
0 0 0 
0 0 0 
0 0 0 
0 0 0 
0 0 0 
0 0 0 
0 0 0 
0 0 0 
0 0 0 
0 0 0 
0 0 0 
0 0 0 
0 0 0 
0 0 0 
0 0 0 
0 0 0 
0 0 0 
0 0 0 
0 0 0 
0 0 0 
0 0 0 
0 0 0 
0 0 0 
0 0 0 
0 0 0 
0 0 0 
0 0 0 
0 0 0 
0 0 0 
0 0 0 
0 0 0 
0 0 0 
0 0 0 
0 0 0 
0 0 0 
0 0 0 
0 0 0 
0 0 0 
0 0 0 
0 0 0 
0 0 0 
0 0 0 
0 0 0 
0 0 0 
0 0 0 
0 0 0 
0 0 0 
0 0 0 
0 0 0 
0 0 0 
0 0 0 
0 0 0 
0 0 0 
0 0 0 
0 0 0 
0 0 0 
0 0 0 
0 0 0 
0 0 0 
0 0 0 
0 0 0 
0 0 0 
0 0 0 
0 0 0 
0 0 0 
0 0 0 
0 0 0 
0 0 0 
0 0 0 
0 0 0 
0 0 0 
0.99573314 0.09227785 0.000508165 
0.9966184 0.08216869 0.0004936774 
0.9974395 0.071513444 0.00047925048 
0 0 0 
0 0 0 
0 0 0 
0 0 0 
0 0 0 
0 0 0 
0 0 0 
0 0 0 
0 0 0 
0 0 0 
0 0 0 
0 0 0 
0.9953561 0.096260495 0.0005134794 
0.99607795 0.0884786 0.00050086644 
0.9967256 0.080857046 0.00049506815 
0.9973851 0.07226957 0.00047078572 
0.9980952 0.061692104 0.00045995272 
0 0 0 
0 0 0 
0 0 0 
0 0 0 
0 0 0 
0 0 0 
0 0 0 
0 0 0 
0 0 0 
0 0 0 
0.99584234 0.09109285 0.00048501545 
0.99589545 0.090510845 0.00049687066 
0.99629027 0.08605525 0.00050363666 
0.9966965 0.08121535 0.00048224156 
0.99711055 0.075963706 0.00048313203 
0.99753577 0.070158385 0.00046940803 
0 0 0 
0 0 0 
0 0 0 
0 0 0 
0 0 0 
0 0 0 
0 0 0 
0 0 0 
0 0 0 
0 0 0 
0.9963272 0.08562632 0.00047800355 
0.99631214 0.08580204 0.0004948942 
0.9964297 0.0844255 0.0004866912 
0.99662477 0.08209094 0.0004962773 
0.9968203 0.07968168 0.00048111257 
0.99688315 0.07889117 0.00048582113 
0 0 0 
0 0 0 
0 0 0 
0 0 0 
0 0 0 
0 0 0 
0 0 0 
0 0 0 
0 0 0 
0 0 0 
0 0 0 
0.9969184 0.078444555 0.00048262835 
0.9966333 0.081987016 0.00049329485 
0.9965692 0.08276212 0.0004882806 
0.9965737 0.08270845 0.00049778237 
0.996384 0.08496168 0.00049073546 
0 0 0 
0 0 0 
0 0 0 
0 0 0 
0 0 0 
0 0 0 
0 0 0 
0 0 0 
0 0 0 
0 0 0 
0 0 0 
0.9975649 0.06974273 0.00047377014 
0.9969995 0.07740601 0.00048427147 
0.99651736 0.08338495 0.0004980351 
0.9961166 0.08804259 0.00050255767 
0 0 0 
0 0 0 
0 0 0 
0 0 0 
0 0 0 
0 0 0 
0 0 0 
0 0 0 
0 0 0 
0 0 0 
0 0 0 
0 0 0 
0 0 0 
0 0 0 
0 0 0 
0 0 0 
0 0 0 
0 0 0 
0 0 0 
0 0 0 
0 0 0 
0 0 0 
0 0 0 
0 0 0 
0 0 0 
0 0 0 
0 0 0 
0 0 0 
0 0 0 
0 0 0 
0 0 0 
0 0 0 
0 0 0 
0 0 0 
0 0 0 
0 0 0 
0 0 0 
0 0 0 
0 0 0 
0 0 0 
0 0 0 
0 0 0 
0 0 0 
0 0 0 
0 0 0 
0.99566895 0.09296907 0.00050952815 
0.99618465 0.08726919 0.00049358804 
0.99670756 0.08107978 0.00049879414 
0 0 0 
0 0 0 
0 0 0 
0 0 0 
0 0 0 
0 0 0 
0 0 0 
0 0 0 
0 0 0 
0 0 0 
0 0 0 
0 0 0 
0.99600714 0.08927225 0.00048070747 
0.9962223 0.08683849 0.00046785126 
0.99643105 0.084409855 0.0005105488 
0.99680585 0.07986216 0.00046863596 
0.9973913 0.07218354 0.00047932632 
0 0 0 
0 0 0 
0 0 0 
0 0 0 
0 0 0 
0 0 0 
0 0 0 
0 0 0 
0 0 0 
0 0 0 
0.9969035 0.07863434 0.0004225982 
0.9967078 0.0810771 0.00042967428 
0.9966044 0.082337536 0.000496325 
0.9965679 0.08277854 0.0004436373 
0.9965616 0.082854204 0.0005076641 
0.99681336 0.07976895 0.00047069663 
0 0 0 
0 0 0 
0 0 0 
0 0 0 
0 0 0 
0 0 0 
0 0 0 
0 0 0 
0 0 0 
0 0 0 
0.9975258 0.07029992 0.00039782134 
0.9972015 0.0747596 0.00045123856 
0.99690807 0.078577034 0.0004178418 
0.9965661 0.08280014 0.0005059407 
0.9963578 0.08527053 0.00045397907 
0.99622893 0.08676207 0.00049804704 
0.9965539 0.082947 0.0004531005 
0 0 0 
0 0 0 
0 0 0 
0 0 0 
0 0 0 
0 0 0 
0 0 0 
0 0 0 
0 0 0 
0.99810696 0.06150096 0.0003959982 
0.99770707 0.06767868 0.00039996568 
0.9971104 0.0759655 0.000468424 
0.99656504 0.0828132 0.0004408598 
0.99600005 0.08935131 0.0005134745 
0.99539053 0.095903516 0.00049466116 
0 0 0 
0 0 0 
0 0 0 
0 0 0 
0 0 0 
0 0 0 
0 0 0 
0 0 0 
0 0 0 
0 0 0 
0 0 0 
0.9981106 0.061442275 0.0004203502 
0.9973806 0.07233064 0.000430441 
0.99639446 0.08484057 0.0004900908 
0.99548376 0.09493106 0.000491373 
0.9943544 0.1061085 0.0005167307 
0 0 0 
0 0 0 
0 0 0 
0 0 0 
0 0 0 
0 0 0 
0 0 0 
0 0 0 
0 0 0 
0 0 0 
0 0 0 
0 0 0 
0 0 0 
0.99596566 0.089734204 0.00048576295 
0 0 0 
0 0 0 
0 0 0 
0 0 0 
0 0 0 
0 0 0 
0 0 0 
0 0 0 
0 0 0 
0 0 0 
0 0 0 
0 0 0 
0 0 0 
0 0 0 
0 0 0 
0 0 0 
0 0 0 
0 0 0 
0 0 0 
0 0 0 
0 0 0 
0 0 0 
0 0 0 
0 0 0 
0 0 0 
0 0 0 
0 0 0 
0 0 0 
0 0 0 
0 0 0 
0 0 0 
0 0 0 
0 0 0 
0 0 0 
0 0 0 
0 0 0 
0 0 0 
0 0 0 
0 0 0 
0 0 0 
0 0 0 
0 0 0 
0 0 0 
0 0 0 
0 0 0 
0 0 0 
0 0 0 
0 0 0 
0 0 0 
0 0 0 
0 0 0 
0 0 0 
0 0 0 
0 0 0 
0 0 0 
0 0 0 
0 0 0 
0 0 0 
0 0 0 
0 0 0 
0.9946881 0.10288872 0.0031031226 
0.99565613 0.09305353 0.0031701147 
0.9965743 0.0826421 0.003168673 
0.9973478 0.072715096 0.0031729736 
0 0 0 
0 0 0 
0 0 0 
0 0 0 
0 0 0 
0 0 0 
0 0 0 
0 0 0 
0 0 0 
0 0 0 
0 0 0 
0.9951795 0.09802388 0.0030231108 
0.99553204 0.09437218 0.0031307705 
0.99598986 0.08941178 0.0031096984 
0.996455 0.08406681 0.0031900604 
0.99693197 0.078211255 0.0031211125 
0.99746126 0.07114478 0.0030840249 
0 0 0 
0 0 0 
0 0 0 
0 0 0 
0 0 0 
0 0 0 
0 0 0 
0 0 0 
0 0 0 
0 0 0 
0.99620265 0.08701095 0.0030778728 
0.996195 0.08709834 0.0030810896 
0.9962704 0.086227715 0.0031800873 
0.9961992 0.08705043 0.0030883544 
0.9963636 0.08514514 0.0031548422 
0.9966012 0.082320295 0.0030648613 
0 0 0 
0 0 0 
0 0 0 
0 0 0 
0 0 0 
0 0 0 
0 0 0 
0 0 0 
0 0 0 
0 0 0 
0.9971608 0.07523953 0.0030735272 
0.9967704 0.08024376 0.0031588022 
0.99632496 0.08559814 0.0030855036 
0.99606204 0.08860273 0.0031706782 
0.99568325 0.09276646 0.0030662548 
0.99550974 0.09460987 0.0030605556 
0 0 0 
0 0 0 
0 0 0 
0 0 0 
0 0 0 
0 0 0 
0 0 0 
0 0 0 
0 0 0 
0 0 0 
0.9979214 0.06436914 0.003085524 
0.9972475 0.07407912 0.0031136947 
0.9965028 0.083500065 0.0031754004 
0.9956903 0.09268952 0.0030888172 
0.9949057 0.100761995 0.003106834 
0.99434614 0.1061446 0.0029994715 
0 0 0 
0 0 0 
0 0 0 
0 0 0 
0 0 0 
0 0 0 
0 0 0 
0 0 0 
0 0 0 
0 0 0 
0 0 0 
0.9975554 0.06980951 0.003153766 
0.996557 0.08285058 0.003144392 
0.99527633 0.097031794 0.0031412167 
0.9939768 0.109548084 0.003072407 
0 0 0 
0 0 0 
0 0 0 
0 0 0 
0 0 0 
0 0 0 
0 0 0 
0 0 0 
0 0 0 
0 0 0 
0 0 0 
0 0 0 
0 0 0 
0 0 0 
0 0 0 
0 0 0 
0 0 0 
0 0 0 
0 0 0 
0 0 0 
0 0 0 
0 0 0 
0 0 0 
0 0 0 
0 0 0 
0 0 0 
0 0 0 
0 0 0 
0 0 0 
0 0 0 
0 0 0 
0 0 0 
0 0 0 
0 0 0 
0 0 0 
0 0 0 
0 0 0 
0 0 0 
0 0 0 
0 0 0 
# End: Data Text
# End: Segment
