# OOMMF: rectangular mesh v1.0
# Segment count: 1
# Begin: Segment
# Begin: Header
# Desc: Time (s) :  1.2574784383089544e-08
# Title: m
# meshtype: rectangular
# meshunit: m
# xbase: 2.5e-09
# ybase: 2.5e-09
# zbase: 2.25e-08
# xstepsize: 5e-09
# ystepsize: 5e-09
# zstepsize: 4.5e-08
# xmin: 0
# ymin: 0
# zmin: 0
# xmax: 8e-08
# ymax: 1.6e-07
# zmax: 4.5e-08
# xnodes: 16
# ynodes: 32
# znodes: 1
# ValueRangeMinMag: 1e-08
# ValueRangeMaxMag: 1
# valueunit: 
# valuemultiplier: 1
# End: Header
# Begin: Data Text
0 0 0 
0 0 0 
0 0 0 
0 0 0 
0 0 0 
0 0 0 
0 0 0 
0 0 0 
0 0 0 
0 0 0 
0 0 0 
0 0 0 
0 0 0 
0 0 0 
0 0 0 
0 0 0 
0 0 0 
0 0 0 
0 0 0 
0 0 0 
0 0 0 
0 0 0 
0 0 0 
0 0 0 
0 0 0 
0 0 0 
0 0 0 
0 0 0 
0 0 0 
0 0 0 
0 0 0 
0 0 0 
0 0 0 
0 0 0 
0 0 0 
0 0 0 
0 0 0 
0 0 0 
0 0 0 
0 0 0 
0 0 0 
0 0 0 
0 0 0 
0 0 0 
0 0 0 
0 0 0 
0 0 0 
0 0 0 
0 0 0 
0 0 0 
0 0 0 
0 0 0 
0 0 0 
0 0 0 
0 0 0 
0 0 0 
0 0 0 
0 0 0 
0 0 0 
0 0 0 
0 0 0 
0 0 0 
0 0 0 
0 0 0 
0 0 0 
0 0 0 
0 0 0 
0 0 0 
0 0 0 
0 0 0 
0 0 0 
0 0 0 
0 0 0 
0 0 0 
0 0 0 
0 0 0 
0 0 0 
0 0 0 
0 0 0 
0 0 0 
0 0 0 
0 0 0 
0 0 0 
0 0 0 
0 0 0 
0 0 0 
0 0 0 
0 0 0 
0 0 0 
0 0 0 
0 0 0 
0 0 0 
0 0 0 
0 0 0 
0 0 0 
0 0 0 
0 0 0 
0 0 0 
0 0 0 
0 0 0 
0 0 0 
0 0 0 
0.99499166 0.09489578 -0.031406708 
0.9958877 0.08482564 -0.03181717 
0.99673355 0.074199885 -0.03188369 
0 0 0 
0 0 0 
0 0 0 
0 0 0 
0 0 0 
0 0 0 
0 0 0 
0 0 0 
0 0 0 
0 0 0 
0 0 0 
0 0 0 
0.9946513 0.09873508 -0.030335808 
0.9953645 0.09103588 -0.031017598 
0.9960114 0.08347578 -0.031516667 
0.9966829 0.07491785 -0.031789303 
0.99742085 0.06434578 -0.03179985 
0 0 0 
0 0 0 
0 0 0 
0 0 0 
0 0 0 
0 0 0 
0 0 0 
0 0 0 
0 0 0 
0 0 0 
0.9952251 0.09340546 -0.028329436 
0.9952198 0.09297447 -0.029886499 
0.9955905 0.08862374 -0.030750213 
0.99598604 0.083847195 -0.031329874 
0.99639815 0.07863342 -0.03174405 
0.9968294 0.072842136 -0.032021783 
0 0 0 
0 0 0 
0 0 0 
0 0 0 
0 0 0 
0 0 0 
0 0 0 
0 0 0 
0 0 0 
0 0 0 
0.9957179 0.08796622 -0.028420957 
0.9956376 0.08833324 -0.03005003 
0.9957259 0.0870546 -0.03084353 
0.9959049 0.08478367 -0.03138681 
0.9960917 0.082400255 -0.031803355 
0.9961473 0.081612825 -0.03209416 
0 0 0 
0 0 0 
0 0 0 
0 0 0 
0 0 0 
0 0 0 
0 0 0 
0 0 0 
0 0 0 
0 0 0 
0 0 0 
0.99622416 0.081134155 -0.030898413 
0.99591446 0.08472242 -0.031249667 
0.995832 0.08553816 -0.031652402 
0.99582595 0.08549625 -0.031954315 
0.99563324 0.08769575 -0.031996083 
0 0 0 
0 0 0 
0 0 0 
0 0 0 
0 0 0 
0 0 0 
0 0 0 
0 0 0 
0 0 0 
0 0 0 
0 0 0 
0.99688244 0.07254411 -0.031029591 
0.9962763 0.08023785 -0.031548794 
0.9957622 0.086242944 -0.03193393 
0.9953373 0.090921365 -0.03220205 
0 0 0 
0 0 0 
0 0 0 
0 0 0 
0 0 0 
0 0 0 
0 0 0 
0 0 0 
0 0 0 
0 0 0 
0 0 0 
0 0 0 
0 0 0 
0 0 0 
0 0 0 
0 0 0 
0 0 0 
0 0 0 
0 0 0 
0 0 0 
0 0 0 
0 0 0 
0 0 0 
0 0 0 
0 0 0 
0 0 0 
0 0 0 
0 0 0 
0 0 0 
0 0 0 
0 0 0 
0 0 0 
0 0 0 
0 0 0 
0 0 0 
0 0 0 
0 0 0 
0 0 0 
0 0 0 
0 0 0 
0 0 0 
0 0 0 
0 0 0 
0 0 0 
0 0 0 
0.99369013 0.10779212 -0.030996786 
0.99426746 0.102283284 -0.031151254 
0.9948883 0.09606503 -0.031123994 
0 0 0 
0 0 0 
0 0 0 
0 0 0 
0 0 0 
0 0 0 
0 0 0 
0 0 0 
0 0 0 
0 0 0 
0 0 0 
0 0 0 
0.99424535 0.102925315 -0.029708976 
0.9944034 0.10117325 -0.030428289 
0.9946653 0.09854507 -0.030492293 
0.99506307 0.09438524 -0.030676387 
0.995815 0.08626484 -0.03018098 
0 0 0 
0 0 0 
0 0 0 
0 0 0 
0 0 0 
0 0 0 
0 0 0 
0 0 0 
0 0 0 
0 0 0 
0.9954382 0.091276735 -0.027771348 
0.9950865 0.09461663 -0.029166907 
0.99495673 0.09583538 -0.02960818 
0.9948236 0.09704197 -0.030149998 
0.9948737 0.096589625 -0.02994567 
0.9951472 0.093726695 -0.029955326 
0 0 0 
0 0 0 
0 0 0 
0 0 0 
0 0 0 
0 0 0 
0 0 0 
0 0 0 
0 0 0 
0 0 0 
0.996155 0.08307569 -0.027813653 
0.99572074 0.087823525 -0.028763205 
0.99527603 0.092480175 -0.029548474 
0.9949235 0.09621584 -0.029491551 
0.9946212 0.09923258 -0.029694444 
0.9945636 0.10001642 -0.02898471 
0.9950727 0.09536431 -0.027129928 
0 0 0 
0 0 0 
0 0 0 
0 0 0 
0 0 0 
0 0 0 
0 0 0 
0 0 0 
0 0 0 
0.99685806 0.074193016 -0.027738452 
0.9962831 0.081124805 -0.02896172 
0.99557346 0.08930439 -0.029297106 
0.9948577 0.09681541 -0.029749822 
0.9942662 0.10279994 -0.02944509 
0.99355924 0.109458536 -0.02930681 
0 0 0 
0 0 0 
0 0 0 
0 0 0 
0 0 0 
0 0 0 
0 0 0 
0 0 0 
0 0 0 
0 0 0 
0 0 0 
0.99675566 0.07497617 -0.029270815 
0.99584186 0.0861248 -0.029689478 
0.994669 0.098695695 -0.029879637 
0.99363244 0.10870101 -0.02964346 
0.9924053 0.11954044 -0.029015958 
0 0 0 
0 0 0 
0 0 0 
0 0 0 
0 0 0 
0 0 0 
0 0 0 
0 0 0 
0 0 0 
0 0 0 
0 0 0 
0 0 0 
0 0 0 
0.99402595 0.10473714 -0.030700093 
0 0 0 
0 0 0 
0 0 0 
0 0 0 
0 0 0 
0 0 0 
0 0 0 
0 0 0 
0 0 0 
0 0 0 
0 0 0 
0 0 0 
0 0 0 
0 0 0 
0 0 0 
0 0 0 
0 0 0 
0 0 0 
0 0 0 
0 0 0 
0 0 0 
0 0 0 
0 0 0 
0 0 0 
0 0 0 
0 0 0 
0 0 0 
0 0 0 
0 0 0 
0 0 0 
0 0 0 
0 0 0 
0 0 0 
0 0 0 
0 0 0 
0 0 0 
0 0 0 
0 0 0 
0 0 0 
0 0 0 
0 0 0 
0 0 0 
0 0 0 
0 0 0 
0 0 0 
0 0 0 
0 0 0 
0 0 0 
0 0 0 
0 0 0 
0 0 0 
0 0 0 
0 0 0 
0 0 0 
0 0 0 
0 0 0 
0 0 0 
0 0 0 
0 0 0 
0 0 0 
0.99407905 0.106894046 0.019507041 
0.9950527 0.09739112 0.01962573 
0.996037 0.08667546 0.01994225 
0.99683535 0.077032916 0.019629223 
0 0 0 
0 0 0 
0 0 0 
0 0 0 
0 0 0 
0 0 0 
0 0 0 
0 0 0 
0 0 0 
0 0 0 
0 0 0 
0.9946335 0.10174006 0.018794665 
0.99493545 0.098688714 0.019083148 
0.995472 0.09295456 0.019876318 
0.99587643 0.08864514 0.019294024 
0.9964448 0.08191361 0.019698335 
0.99699134 0.07517117 0.018905059 
0 0 0 
0 0 0 
0 0 0 
0 0 0 
0 0 0 
0 0 0 
0 0 0 
0 0 0 
0 0 0 
0 0 0 
0.99567544 0.09098595 0.018765287 
0.9957041 0.09050171 0.01956729 
0.9956797 0.09089783 0.018964915 
0.9957133 0.09033088 0.01988379 
0.99579674 0.08959942 0.018994443 
0.9961115 0.08600913 0.019090818 
0 0 0 
0 0 0 
0 0 0 
0 0 0 
0 0 0 
0 0 0 
0 0 0 
0 0 0 
0 0 0 
0 0 0 
0.99670464 0.078856714 0.019016141 
0.9962329 0.08462957 0.018917114 
0.9958505 0.088821165 0.019814719 
0.9954645 0.09323604 0.018909575 
0.99517494 0.09615386 0.019529318 
0.9949521 0.09858532 0.018743182 
0 0 0 
0 0 0 
0 0 0 
0 0 0 
0 0 0 
0 0 0 
0 0 0 
0 0 0 
0 0 0 
0 0 0 
0.997491 0.06826537 0.018751143 
0.99679136 0.0776286 0.01951204 
0.995943 0.0879346 0.019105785 
0.99517596 0.09610704 0.019705746 
0.99429363 0.10498315 0.018938867 
0.9937771 0.10980651 0.018697387 
0 0 0 
0 0 0 
0 0 0 
0 0 0 
0 0 0 
0 0 0 
0 0 0 
0 0 0 
0 0 0 
0 0 0 
0 0 0 
0.99707776 0.07390322 0.019348102 
0.99604297 0.08666973 0.019666342 
0.99467963 0.101179376 0.01936778 
0.99336416 0.11338552 0.019272694 
0 0 0 
0 0 0 
0 0 0 
0 0 0 
0 0 0 
0 0 0 
0 0 0 
0 0 0 
0 0 0 
0 0 0 
0 0 0 
0 0 0 
0 0 0 
0 0 0 
0 0 0 
0 0 0 
0 0 0 
0 0 0 
0 0 0 
0 0 0 
0 0 0 
0 0 0 
0 0 0 
0 0 0 
0 0 0 
0 0 0 
0 0 0 
0 0 0 
0 0 0 
0 0 0 
0 0 0 
0 0 0 
0 0 0 
0 0 0 
0 0 0 
0 0 0 
0 0 0 
0 0 0 
0 0 0 
0 0 0 
# End: Data Text
# End: Segment
