# OOMMF: rectangular mesh v1.0
# Segment count: 1
# Begin: Segment
# Begin: Header
# Desc: Time (s) :  5.883666651491049e-09
# Title: m
# meshtype: rectangular
# meshunit: m
# xbase: 2.5e-09
# ybase: 2.5e-09
# zbase: 2.25e-08
# xstepsize: 5e-09
# ystepsize: 5e-09
# zstepsize: 4.5e-08
# xmin: 0
# ymin: 0
# zmin: 0
# xmax: 8e-08
# ymax: 1.6e-07
# zmax: 4.5e-08
# xnodes: 16
# ynodes: 32
# znodes: 1
# ValueRangeMinMag: 1e-08
# ValueRangeMaxMag: 1
# valueunit: 
# valuemultiplier: 1
# End: Header
# Begin: Data Text
0 0 0 
0 0 0 
0 0 0 
0 0 0 
0 0 0 
0 0 0 
0 0 0 
0 0 0 
0 0 0 
0 0 0 
0 0 0 
0 0 0 
0 0 0 
0 0 0 
0 0 0 
0 0 0 
0 0 0 
0 0 0 
0 0 0 
0 0 0 
0 0 0 
0 0 0 
0 0 0 
0 0 0 
0 0 0 
0 0 0 
0 0 0 
0 0 0 
0 0 0 
0 0 0 
0 0 0 
0 0 0 
0 0 0 
0 0 0 
0 0 0 
0 0 0 
0 0 0 
0 0 0 
0 0 0 
0 0 0 
0 0 0 
0 0 0 
0 0 0 
0 0 0 
0 0 0 
0 0 0 
0 0 0 
0 0 0 
0 0 0 
0 0 0 
0 0 0 
0 0 0 
0 0 0 
0 0 0 
0 0 0 
0 0 0 
0 0 0 
0 0 0 
0 0 0 
0 0 0 
0 0 0 
0 0 0 
0 0 0 
0 0 0 
0 0 0 
0 0 0 
0 0 0 
0 0 0 
0 0 0 
0 0 0 
0 0 0 
0 0 0 
0 0 0 
0 0 0 
0 0 0 
0 0 0 
0 0 0 
0 0 0 
0 0 0 
0 0 0 
0 0 0 
0 0 0 
0 0 0 
0 0 0 
0 0 0 
0 0 0 
0 0 0 
0 0 0 
0 0 0 
0 0 0 
0 0 0 
0 0 0 
0 0 0 
0 0 0 
0 0 0 
0 0 0 
0 0 0 
0 0 0 
0 0 0 
0 0 0 
0 0 0 
0 0 0 
0.99572307 0.092387296 0.0003991125 
0.9966091 0.0822819 0.0003840738 
0.9974315 0.071625516 0.00036683588 
0 0 0 
0 0 0 
0 0 0 
0 0 0 
0 0 0 
0 0 0 
0 0 0 
0 0 0 
0 0 0 
0 0 0 
0 0 0 
0 0 0 
0.9953463 0.09636164 0.00041231798 
0.9960683 0.08858815 0.0003986262 
0.9967171 0.080962405 0.00038309826 
0.9973769 0.07238273 0.00036260084 
0.9980884 0.061801206 0.00034772843 
0 0 0 
0 0 0 
0 0 0 
0 0 0 
0 0 0 
0 0 0 
0 0 0 
0 0 0 
0 0 0 
0 0 0 
0.9958338 0.091185905 0.00039564405 
0.995886 0.09061419 0.00040238764 
0.9962817 0.08615506 0.00039610296 
0.99668735 0.08132895 0.00037967574 
0.9971025 0.07606928 0.000368871 
0.99752796 0.07027035 0.00035833864 
0 0 0 
0 0 0 
0 0 0 
0 0 0 
0 0 0 
0 0 0 
0 0 0 
0 0 0 
0 0 0 
0 0 0 
0.9963191 0.08572115 0.00038949927 
0.99630374 0.08590048 0.00039409162 
0.9964203 0.08453624 0.0003876909 
0.9966164 0.08219363 0.00038348083 
0.9968112 0.07979595 0.000374227 
0.9968746 0.079000466 0.0003718691 
0 0 0 
0 0 0 
0 0 0 
0 0 0 
0 0 0 
0 0 0 
0 0 0 
0 0 0 
0 0 0 
0 0 0 
0 0 0 
0.9969099 0.078552656 0.00038069117 
0.99662477 0.08209137 0.00038405592 
0.99655986 0.08287593 0.00038261883 
0.99656487 0.08281636 0.000383511 
0.99637467 0.08507264 0.00037900681 
0 0 0 
0 0 0 
0 0 0 
0 0 0 
0 0 0 
0 0 0 
0 0 0 
0 0 0 
0 0 0 
0 0 0 
0 0 0 
0.99755734 0.069851436 0.00036777856 
0.9969909 0.077517375 0.0003772712 
0.99650824 0.08349445 0.00038610565 
0.9961066 0.088155404 0.00039069206 
0 0 0 
0 0 0 
0 0 0 
0 0 0 
0 0 0 
0 0 0 
0 0 0 
0 0 0 
0 0 0 
0 0 0 
0 0 0 
0 0 0 
0 0 0 
0 0 0 
0 0 0 
0 0 0 
0 0 0 
0 0 0 
0 0 0 
0 0 0 
0 0 0 
0 0 0 
0 0 0 
0 0 0 
0 0 0 
0 0 0 
0 0 0 
0 0 0 
0 0 0 
0 0 0 
0 0 0 
0 0 0 
0 0 0 
0 0 0 
0 0 0 
0 0 0 
0 0 0 
0 0 0 
0 0 0 
0 0 0 
0 0 0 
0 0 0 
0 0 0 
0 0 0 
0 0 0 
0.99566305 0.09303216 0.0003674054 
0.9961663 0.08747921 0.00036597642 
0.99670196 0.08114834 0.00035573373 
0 0 0 
0 0 0 
0 0 0 
0 0 0 
0 0 0 
0 0 0 
0 0 0 
0 0 0 
0 0 0 
0 0 0 
0 0 0 
0 0 0 
0.99600494 0.089297116 0.00034847227 
0.99619216 0.08718479 0.0003633541 
0.9964445 0.08425189 0.0003496238 
0.99677986 0.08018622 0.00035907736 
0.9973875 0.072235286 0.00034425466 
0 0 0 
0 0 0 
0 0 0 
0 0 0 
0 0 0 
0 0 0 
0 0 0 
0 0 0 
0 0 0 
0 0 0 
0.9969003 0.07867472 0.00030740752 
0.99668026 0.08141461 0.0003369128 
0.9966265 0.08207077 0.00033297949 
0.99652404 0.083306246 0.00036206222 
0.9965792 0.08264306 0.0003467581 
0.9967943 0.08000719 0.00035918015 
0 0 0 
0 0 0 
0 0 0 
0 0 0 
0 0 0 
0 0 0 
0 0 0 
0 0 0 
0 0 0 
0 0 0 
0.99751264 0.0704876 0.00029901727 
0.9972143 0.07458982 0.00030753558 
0.9968666 0.07910077 0.00034302167 
0.99659455 0.082457684 0.00033604616 
0.9963177 0.08573809 0.000370655 
0.9962357 0.08668569 0.0003605585 
0.9965434 0.08307272 0.00034906645 
0 0 0 
0 0 0 
0 0 0 
0 0 0 
0 0 0 
0 0 0 
0 0 0 
0 0 0 
0 0 0 
0.9981042 0.061545532 0.00028317614 
0.99768585 0.06799124 0.00030826216 
0.99712694 0.07574841 0.00031590843 
0.996526 0.08328189 0.00035874345 
0.9960151 0.08918412 0.00036386077 
0.99536955 0.09612212 0.00038824716 
0 0 0 
0 0 0 
0 0 0 
0 0 0 
0 0 0 
0 0 0 
0 0 0 
0 0 0 
0 0 0 
0 0 0 
0 0 0 
0.9981079 0.06148657 0.00029796344 
0.9973635 0.07256735 0.00032532334 
0.9964007 0.084767275 0.0003483944 
0.9954627 0.09515193 0.00038320367 
0.9943477 0.10617295 0.00039493333 
0 0 0 
0 0 0 
0 0 0 
0 0 0 
0 0 0 
0 0 0 
0 0 0 
0 0 0 
0 0 0 
0 0 0 
0 0 0 
0 0 0 
0 0 0 
0.9959524 0.08988188 0.00036136166 
0 0 0 
0 0 0 
0 0 0 
0 0 0 
0 0 0 
0 0 0 
0 0 0 
0 0 0 
0 0 0 
0 0 0 
0 0 0 
0 0 0 
0 0 0 
0 0 0 
0 0 0 
0 0 0 
0 0 0 
0 0 0 
0 0 0 
0 0 0 
0 0 0 
0 0 0 
0 0 0 
0 0 0 
0 0 0 
0 0 0 
0 0 0 
0 0 0 
0 0 0 
0 0 0 
0 0 0 
0 0 0 
0 0 0 
0 0 0 
0 0 0 
0 0 0 
0 0 0 
0 0 0 
0 0 0 
0 0 0 
0 0 0 
0 0 0 
0 0 0 
0 0 0 
0 0 0 
0 0 0 
0 0 0 
0 0 0 
0 0 0 
0 0 0 
0 0 0 
0 0 0 
0 0 0 
0 0 0 
0 0 0 
0 0 0 
0 0 0 
0 0 0 
0 0 0 
0 0 0 
0.9946878 0.10289382 0.003012928 
0.9956228 0.09341506 0.0029647711 
0.9965822 0.08254819 0.0031070407 
0.9973292 0.072976366 0.0029999937 
0 0 0 
0 0 0 
0 0 0 
0 0 0 
0 0 0 
0 0 0 
0 0 0 
0 0 0 
0 0 0 
0 0 0 
0 0 0 
0.99518013 0.09802021 0.002940744 
0.9954773 0.094956495 0.0028587896 
0.99603695 0.08888388 0.0031873127 
0.9963892 0.08485565 0.0028508222 
0.99695736 0.07788555 0.003135156 
0.9974437 0.071397655 0.0029192944 
0 0 0 
0 0 0 
0 0 0 
0 0 0 
0 0 0 
0 0 0 
0 0 0 
0 0 0 
0 0 0 
0 0 0 
0.99617237 0.087363325 0.0028830445 
0.9962411 0.08656633 0.0031630583 
0.9961805 0.087274574 0.0027613952 
0.9962674 0.086260594 0.003249705 
0.9962971 0.085930735 0.0028194166 
0.9966099 0.08221638 0.0030123899 
0 0 0 
0 0 0 
0 0 0 
0 0 0 
0 0 0 
0 0 0 
0 0 0 
0 0 0 
0 0 0 
0 0 0 
0.9971689 0.07513366 0.0030228898 
0.99670774 0.08102917 0.0028245025 
0.99639213 0.084806345 0.0032484226 
0.9959696 0.08964955 0.0027522154 
0.9957324 0.09223444 0.0031483504 
0.99547684 0.0949621 0.0028651736 
0 0 0 
0 0 0 
0 0 0 
0 0 0 
0 0 0 
0 0 0 
0 0 0 
0 0 0 
0 0 0 
0 0 0 
0.9979056 0.06461997 0.0029236267 
0.9972719 0.07374922 0.003131532 
0.99643743 0.084288225 0.00283866 
0.9957394 0.09215794 0.0031693124 
0.9948473 0.10134519 0.002836202 
0.9943469 0.10613983 0.0029181645 
0 0 0 
0 0 0 
0 0 0 
0 0 0 
0 0 0 
0 0 0 
0 0 0 
0 0 0 
0 0 0 
0 0 0 
0 0 0 
0.9975378 0.07006729 0.002985119 
0.99656534 0.08275219 0.003087268 
0.99524194 0.097390816 0.0029396513 
0.9939768 0.10954976 0.0029855596 
0 0 0 
0 0 0 
0 0 0 
0 0 0 
0 0 0 
0 0 0 
0 0 0 
0 0 0 
0 0 0 
0 0 0 
0 0 0 
0 0 0 
0 0 0 
0 0 0 
0 0 0 
0 0 0 
0 0 0 
0 0 0 
0 0 0 
0 0 0 
0 0 0 
0 0 0 
0 0 0 
0 0 0 
0 0 0 
0 0 0 
0 0 0 
0 0 0 
0 0 0 
0 0 0 
0 0 0 
0 0 0 
0 0 0 
0 0 0 
0 0 0 
0 0 0 
0 0 0 
0 0 0 
0 0 0 
0 0 0 
# End: Data Text
# End: Segment
