# OOMMF: rectangular mesh v1.0
# Segment count: 1
# Begin: Segment
# Begin: Header
# Desc: Time (s) :  1.320718201671207e-08
# Title: m
# meshtype: rectangular
# meshunit: m
# xbase: 2.5e-09
# ybase: 2.5e-09
# zbase: 2.25e-08
# xstepsize: 5e-09
# ystepsize: 5e-09
# zstepsize: 4.5e-08
# xmin: 0
# ymin: 0
# zmin: 0
# xmax: 8e-08
# ymax: 1.6e-07
# zmax: 4.5e-08
# xnodes: 16
# ynodes: 32
# znodes: 1
# ValueRangeMinMag: 1e-08
# ValueRangeMaxMag: 1
# valueunit: 
# valuemultiplier: 1
# End: Header
# Begin: Data Text
0 0 0 
0 0 0 
0 0 0 
0 0 0 
0 0 0 
0 0 0 
0 0 0 
0 0 0 
0 0 0 
0 0 0 
0 0 0 
0 0 0 
0 0 0 
0 0 0 
0 0 0 
0 0 0 
0 0 0 
0 0 0 
0 0 0 
0 0 0 
0 0 0 
0 0 0 
0 0 0 
0 0 0 
0 0 0 
0 0 0 
0 0 0 
0 0 0 
0 0 0 
0 0 0 
0 0 0 
0 0 0 
0 0 0 
0 0 0 
0 0 0 
0 0 0 
0 0 0 
0 0 0 
0 0 0 
0 0 0 
0 0 0 
0 0 0 
0 0 0 
0 0 0 
0 0 0 
0 0 0 
0 0 0 
0 0 0 
0 0 0 
0 0 0 
0 0 0 
0 0 0 
0 0 0 
0 0 0 
0 0 0 
0 0 0 
0 0 0 
0 0 0 
0 0 0 
0 0 0 
0 0 0 
0 0 0 
0 0 0 
0 0 0 
0 0 0 
0 0 0 
0 0 0 
0 0 0 
0 0 0 
0 0 0 
0 0 0 
0 0 0 
0 0 0 
0 0 0 
0 0 0 
0 0 0 
0 0 0 
0 0 0 
0 0 0 
0 0 0 
0 0 0 
0 0 0 
0 0 0 
0 0 0 
0 0 0 
0 0 0 
0 0 0 
0 0 0 
0 0 0 
0 0 0 
0 0 0 
0 0 0 
0 0 0 
0 0 0 
0 0 0 
0 0 0 
0 0 0 
0 0 0 
0 0 0 
0 0 0 
0 0 0 
0 0 0 
0.99663204 0.07580841 0.031268127 
0.99735093 0.065507255 0.031620838 
0.99799985 0.054733507 0.031632315 
0 0 0 
0 0 0 
0 0 0 
0 0 0 
0 0 0 
0 0 0 
0 0 0 
0 0 0 
0 0 0 
0 0 0 
0 0 0 
0 0 0 
0.99627006 0.0808062 0.030271681 
0.99688816 0.07252425 0.030892657 
0.9974205 0.06458444 0.031325776 
0.99794066 0.055856526 0.03153532 
0.99847496 0.045342255 0.03149563 
0 0 0 
0 0 0 
0 0 0 
0 0 0 
0 0 0 
0 0 0 
0 0 0 
0 0 0 
0 0 0 
0 0 0 
0.9966473 0.07676818 0.02829856 
0.9967163 0.075283356 0.02981833 
0.99705815 0.07026429 0.030627253 
0.99739444 0.06507166 0.031147774 
0.9977232 0.05963011 0.03150796 
0.99805003 0.05374295 0.031746194 
0 0 0 
0 0 0 
0 0 0 
0 0 0 
0 0 0 
0 0 0 
0 0 0 
0 0 0 
0 0 0 
0 0 0 
0.99705577 0.07123591 0.028374951 
0.997068 0.07041187 0.029959707 
0.9971763 0.06852945 0.030712388 
0.99733883 0.065886244 0.031213574 
0.99749434 0.0633011 0.03159181 
0.99753994 0.06244247 0.031858902 
0 0 0 
0 0 0 
0 0 0 
0 0 0 
0 0 0 
0 0 0 
0 0 0 
0 0 0 
0 0 0 
0 0 0 
0 0 0 
0.99757457 0.06244048 0.030759491 
0.99734837 0.06579408 0.031102696 
0.9972982 0.066370316 0.031486727 
0.9972989 0.06622406 0.031768452 
0.997136 0.068619795 0.031795092 
0 0 0 
0 0 0 
0 0 0 
0 0 0 
0 0 0 
0 0 0 
0 0 0 
0 0 0 
0 0 0 
0 0 0 
0 0 0 
0.998099 0.053347196 0.030861491 
0.9976497 0.060908064 0.031389724 
0.9972607 0.06679374 0.031778425 
0.9969396 0.071305 0.032046787 
0 0 0 
0 0 0 
0 0 0 
0 0 0 
0 0 0 
0 0 0 
0 0 0 
0 0 0 
0 0 0 
0 0 0 
0 0 0 
0 0 0 
0 0 0 
0 0 0 
0 0 0 
0 0 0 
0 0 0 
0 0 0 
0 0 0 
0 0 0 
0 0 0 
0 0 0 
0 0 0 
0 0 0 
0 0 0 
0 0 0 
0 0 0 
0 0 0 
0 0 0 
0 0 0 
0 0 0 
0 0 0 
0 0 0 
0 0 0 
0 0 0 
0 0 0 
0 0 0 
0 0 0 
0 0 0 
0 0 0 
0 0 0 
0 0 0 
0 0 0 
0 0 0 
0 0 0 
0.9973941 0.07167803 0.008211008 
0.9977849 0.0660142 0.008216864 
0.9981867 0.059631076 0.0082206335 
0 0 0 
0 0 0 
0 0 0 
0 0 0 
0 0 0 
0 0 0 
0 0 0 
0 0 0 
0 0 0 
0 0 0 
0 0 0 
0 0 0 
0.9975347 0.06973232 0.007868726 
0.9977267 0.06691331 0.008010426 
0.99793 0.06379675 0.008104502 
0.9981854 0.05967374 0.008068848 
0.99860615 0.052175086 0.007972392 
0 0 0 
0 0 0 
0 0 0 
0 0 0 
0 0 0 
0 0 0 
0 0 0 
0 0 0 
0 0 0 
0 0 0 
0.99812865 0.060710266 0.007317016 
0.9980214 0.062408477 0.0076551796 
0.9980118 0.06253276 0.00788099 
0.99795514 0.06342756 0.007907094 
0.9979918 0.06284058 0.00797492 
0.9981463 0.060345255 0.00790507 
0 0 0 
0 0 0 
0 0 0 
0 0 0 
0 0 0 
0 0 0 
0 0 0 
0 0 0 
0 0 0 
0 0 0 
0.9985924 0.05253835 0.007287454 
0.99840844 0.055881236 0.0076095583 
0.99817806 0.059840642 0.00772749 
0.99797785 0.063072935 0.007871994 
0.9977663 0.06634308 0.007814037 
0.9976693 0.06779681 0.0077226036 
0.9978206 0.06559162 0.007196749 
0 0 0 
0 0 0 
0 0 0 
0 0 0 
0 0 0 
0 0 0 
0 0 0 
0 0 0 
0 0 0 
0.9990205 0.043648563 0.0072717005 
0.99875605 0.049287178 0.007565638 
0.9983616 0.05669231 0.0077666556 
0.9979243 0.06392203 0.0078109587 
0.99751633 0.069995865 0.00786256 
0.9969907 0.077129066 0.007787502 
0 0 0 
0 0 0 
0 0 0 
0 0 0 
0 0 0 
0 0 0 
0 0 0 
0 0 0 
0 0 0 
0 0 0 
0 0 0 
0.9990674 0.042489883 0.0076769264 
0.9985445 0.05336856 0.0077878153 
0.9978414 0.065188795 0.007931952 
0.9970831 0.075917274 0.007864364 
0.99615777 0.08723327 0.0077554444 
0 0 0 
0 0 0 
0 0 0 
0 0 0 
0 0 0 
0 0 0 
0 0 0 
0 0 0 
0 0 0 
0 0 0 
0 0 0 
0 0 0 
0 0 0 
0.9975861 0.068966284 0.008117417 
0 0 0 
0 0 0 
0 0 0 
0 0 0 
0 0 0 
0 0 0 
0 0 0 
0 0 0 
0 0 0 
0 0 0 
0 0 0 
0 0 0 
0 0 0 
0 0 0 
0 0 0 
0 0 0 
0 0 0 
0 0 0 
0 0 0 
0 0 0 
0 0 0 
0 0 0 
0 0 0 
0 0 0 
0 0 0 
0 0 0 
0 0 0 
0 0 0 
0 0 0 
0 0 0 
0 0 0 
0 0 0 
0 0 0 
0 0 0 
0 0 0 
0 0 0 
0 0 0 
0 0 0 
0 0 0 
0 0 0 
0 0 0 
0 0 0 
0 0 0 
0 0 0 
0 0 0 
0 0 0 
0 0 0 
0 0 0 
0 0 0 
0 0 0 
0 0 0 
0 0 0 
0 0 0 
0 0 0 
0 0 0 
0 0 0 
0 0 0 
0 0 0 
0 0 0 
0 0 0 
0.99341893 0.113176 0.017611435 
0.9944402 0.10374876 0.01802734 
0.9955046 0.093000606 0.017930795 
0.9963542 0.08340158 0.017955836 
0 0 0 
0 0 0 
0 0 0 
0 0 0 
0 0 0 
0 0 0 
0 0 0 
0 0 0 
0 0 0 
0 0 0 
0 0 0 
0.9940273 0.107801974 0.016981646 
0.99431765 0.10496487 0.017741587 
0.99491733 0.09916036 0.017513098 
0.9953122 0.09500236 0.018114777 
0.9959566 0.08810786 0.017536871 
0.99653906 0.08130235 0.017319787 
0 0 0 
0 0 0 
0 0 0 
0 0 0 
0 0 0 
0 0 0 
0 0 0 
0 0 0 
0 0 0 
0 0 0 
0.99511933 0.09715529 0.017272685 
0.9951648 0.09669364 0.017244443 
0.9950903 0.097311996 0.018049063 
0.9951796 0.09652845 0.017318184 
0.995229 0.0959178 0.017861832 
0.99560076 0.09210662 0.01719498 
0 0 0 
0 0 0 
0 0 0 
0 0 0 
0 0 0 
0 0 0 
0 0 0 
0 0 0 
0 0 0 
0 0 0 
0.99622834 0.08506403 0.01712534 
0.9956869 0.09105544 0.017794354 
0.9953175 0.095105916 0.017262887 
0.9948538 0.09970639 0.018014565 
0.99459726 0.10236887 0.017230872 
0.99434847 0.10475071 0.017276047 
0 0 0 
0 0 0 
0 0 0 
0 0 0 
0 0 0 
0 0 0 
0 0 0 
0 0 0 
0 0 0 
0 0 0 
0.99706554 0.07459563 0.01719844 
0.99630916 0.08405661 0.017392881 
0.99536103 0.09451553 0.017978167 
0.9945807 0.1025019 0.017396104 
0.9936186 0.11140182 0.017654262 
0.99311113 0.11594578 0.01693427 
0 0 0 
0 0 0 
0 0 0 
0 0 0 
0 0 0 
0 0 0 
0 0 0 
0 0 0 
0 0 0 
0 0 0 
0 0 0 
0.9965869 0.08061906 0.017751005 
0.99547786 0.09332409 0.01773428 
0.9940094 0.107827626 0.017853403 
0.9926303 0.11991743 0.01745985 
0 0 0 
0 0 0 
0 0 0 
0 0 0 
0 0 0 
0 0 0 
0 0 0 
0 0 0 
0 0 0 
0 0 0 
0 0 0 
0 0 0 
0 0 0 
0 0 0 
0 0 0 
0 0 0 
0 0 0 
0 0 0 
0 0 0 
0 0 0 
0 0 0 
0 0 0 
0 0 0 
0 0 0 
0 0 0 
0 0 0 
0 0 0 
0 0 0 
0 0 0 
0 0 0 
0 0 0 
0 0 0 
0 0 0 
0 0 0 
0 0 0 
0 0 0 
0 0 0 
0 0 0 
0 0 0 
0 0 0 
# End: Data Text
# End: Segment
