# OOMMF: rectangular mesh v1.0
# Segment count: 1
# Begin: Segment
# Begin: Header
# Desc: Time (s) :  1.2119108282072277e-08
# Title: m
# meshtype: rectangular
# meshunit: m
# xbase: 2.5e-09
# ybase: 2.5e-09
# zbase: 2.25e-08
# xstepsize: 5e-09
# ystepsize: 5e-09
# zstepsize: 4.5e-08
# xmin: 0
# ymin: 0
# zmin: 0
# xmax: 8e-08
# ymax: 1.6e-07
# zmax: 4.5e-08
# xnodes: 16
# ynodes: 32
# znodes: 1
# ValueRangeMinMag: 1e-08
# ValueRangeMaxMag: 1
# valueunit: 
# valuemultiplier: 1
# End: Header
# Begin: Data Text
0 0 0 
0 0 0 
0 0 0 
0 0 0 
0 0 0 
0 0 0 
0 0 0 
0 0 0 
0 0 0 
0 0 0 
0 0 0 
0 0 0 
0 0 0 
0 0 0 
0 0 0 
0 0 0 
0 0 0 
0 0 0 
0 0 0 
0 0 0 
0 0 0 
0 0 0 
0 0 0 
0 0 0 
0 0 0 
0 0 0 
0 0 0 
0 0 0 
0 0 0 
0 0 0 
0 0 0 
0 0 0 
0 0 0 
0 0 0 
0 0 0 
0 0 0 
0 0 0 
0 0 0 
0 0 0 
0 0 0 
0 0 0 
0 0 0 
0 0 0 
0 0 0 
0 0 0 
0 0 0 
0 0 0 
0 0 0 
0 0 0 
0 0 0 
0 0 0 
0 0 0 
0 0 0 
0 0 0 
0 0 0 
0 0 0 
0 0 0 
0 0 0 
0 0 0 
0 0 0 
0 0 0 
0 0 0 
0 0 0 
0 0 0 
0 0 0 
0 0 0 
0 0 0 
0 0 0 
0 0 0 
0 0 0 
0 0 0 
0 0 0 
0 0 0 
0 0 0 
0 0 0 
0 0 0 
0 0 0 
0 0 0 
0 0 0 
0 0 0 
0 0 0 
0 0 0 
0 0 0 
0 0 0 
0 0 0 
0 0 0 
0 0 0 
0 0 0 
0 0 0 
0 0 0 
0 0 0 
0 0 0 
0 0 0 
0 0 0 
0 0 0 
0 0 0 
0 0 0 
0 0 0 
0 0 0 
0 0 0 
0 0 0 
0 0 0 
0.99252874 0.121639565 0.009512097 
0.99367285 0.11190115 0.009615078 
0.99478984 0.101492606 0.009615253 
0 0 0 
0 0 0 
0 0 0 
0 0 0 
0 0 0 
0 0 0 
0 0 0 
0 0 0 
0 0 0 
0 0 0 
0 0 0 
0 0 0 
0.99226403 0.123803385 0.009212801 
0.9930956 0.11693112 0.009398667 
0.993897 0.109900445 0.0095237605 
0.9947811 0.101581484 0.009581473 
0.99581164 0.09092688 0.009567698 
0 0 0 
0 0 0 
0 0 0 
0 0 0 
0 0 0 
0 0 0 
0 0 0 
0 0 0 
0 0 0 
0 0 0 
0.99313706 0.11663978 0.008607675 
0.9930125 0.11766078 0.0090696355 
0.9934114 0.11422398 0.009313108 
0.9938848 0.11001645 0.009466429 
0.9944132 0.10512243 0.009572004 
0.9949932 0.09947732 0.009642659 
0 0 0 
0 0 0 
0 0 0 
0 0 0 
0 0 0 
0 0 0 
0 0 0 
0 0 0 
0 0 0 
0 0 0 
0.9937491 0.111302644 0.008626719 
0.9935247 0.113251254 0.009103101 
0.99357736 0.11277009 0.009330457 
0.9937756 0.110996604 0.009482444 
0.99400634 0.1089011 0.009596341 
0.9940779 0.10823847 0.009676893 
0 0 0 
0 0 0 
0 0 0 
0 0 0 
0 0 0 
0 0 0 
0 0 0 
0 0 0 
0 0 0 
0 0 0 
0 0 0 
0.9942158 0.10699455 0.009333182 
0.9937911 0.110860735 0.00943858 
0.9936643 0.11198142 0.009558471 
0.99365026 0.11209911 0.009647361 
0.9934231 0.11409261 0.0096555315 
0 0 0 
0 0 0 
0 0 0 
0 0 0 
0 0 0 
0 0 0 
0 0 0 
0 0 0 
0 0 0 
0 0 0 
0 0 0 
0.99504215 0.09901301 0.009355202 
0.9942323 0.106825545 0.009516801 
0.9935542 0.11294834 0.009639463 
0.9929841 0.11784739 0.009724274 
0 0 0 
0 0 0 
0 0 0 
0 0 0 
0 0 0 
0 0 0 
0 0 0 
0 0 0 
0 0 0 
0 0 0 
0 0 0 
0 0 0 
0 0 0 
0 0 0 
0 0 0 
0 0 0 
0 0 0 
0 0 0 
0 0 0 
0 0 0 
0 0 0 
0 0 0 
0 0 0 
0 0 0 
0 0 0 
0 0 0 
0 0 0 
0 0 0 
0 0 0 
0 0 0 
0 0 0 
0 0 0 
0 0 0 
0 0 0 
0 0 0 
0 0 0 
0 0 0 
0 0 0 
0 0 0 
0 0 0 
0 0 0 
0 0 0 
0 0 0 
0 0 0 
0 0 0 
0.9918267 0.1269939 0.012343866 
0.99251425 0.121505685 0.012322823 
0.9932424 0.11539706 0.012372987 
0 0 0 
0 0 0 
0 0 0 
0 0 0 
0 0 0 
0 0 0 
0 0 0 
0 0 0 
0 0 0 
0 0 0 
0 0 0 
0 0 0 
0.99264467 0.120484926 0.011826355 
0.9927967 0.11921314 0.011957167 
0.9930555 0.11700924 0.012232109 
0.99356574 0.112613596 0.012056081 
0.99448454 0.104196325 0.0119859865 
0 0 0 
0 0 0 
0 0 0 
0 0 0 
0 0 0 
0 0 0 
0 0 0 
0 0 0 
0 0 0 
0 0 0 
0.9941583 0.10736898 0.011001122 
0.9937 0.111489505 0.011424937 
0.9934661 0.113504134 0.011914834 
0.99334633 0.114566036 0.011739793 
0.9933614 0.11440505 0.012031823 
0.993734 0.11114581 0.01181009 
0 0 0 
0 0 0 
0 0 0 
0 0 0 
0 0 0 
0 0 0 
0 0 0 
0 0 0 
0 0 0 
0 0 0 
0.9950201 0.099074595 0.010919453 
0.99443924 0.10468343 0.011487456 
0.9939272 0.10944071 0.011471312 
0.993442 0.11371673 0.011903101 
0.9931503 0.116267234 0.011594639 
0.9930817 0.11685237 0.011594805 
0.99378324 0.11081223 0.010755692 
0 0 0 
0 0 0 
0 0 0 
0 0 0 
0 0 0 
0 0 0 
0 0 0 
0 0 0 
0 0 0 
0.9958614 0.090225235 0.010935082 
0.9951507 0.09771231 0.011295601 
0.99424845 0.10645568 0.0117198 
0.9934331 0.11382606 0.011589926 
0.99270934 0.11995231 0.011818499 
0.99193835 0.12619092 0.011591413 
0 0 0 
0 0 0 
0 0 0 
0 0 0 
0 0 0 
0 0 0 
0 0 0 
0 0 0 
0 0 0 
0 0 0 
0 0 0 
0.9956953 0.09196648 0.011533269 
0.9945977 0.10315194 0.011631246 
0.9931583 0.11616772 0.011905183 
0.99200433 0.1256597 0.0117050065 
0.9906036 0.13627453 0.011563881 
0 0 0 
0 0 0 
0 0 0 
0 0 0 
0 0 0 
0 0 0 
0 0 0 
0 0 0 
0 0 0 
0 0 0 
0 0 0 
0 0 0 
0 0 0 
0.99230105 0.12325583 0.012117418 
0 0 0 
0 0 0 
0 0 0 
0 0 0 
0 0 0 
0 0 0 
0 0 0 
0 0 0 
0 0 0 
0 0 0 
0 0 0 
0 0 0 
0 0 0 
0 0 0 
0 0 0 
0 0 0 
0 0 0 
0 0 0 
0 0 0 
0 0 0 
0 0 0 
0 0 0 
0 0 0 
0 0 0 
0 0 0 
0 0 0 
0 0 0 
0 0 0 
0 0 0 
0 0 0 
0 0 0 
0 0 0 
0 0 0 
0 0 0 
0 0 0 
0 0 0 
0 0 0 
0 0 0 
0 0 0 
0 0 0 
0 0 0 
0 0 0 
0 0 0 
0 0 0 
0 0 0 
0 0 0 
0 0 0 
0 0 0 
0 0 0 
0 0 0 
0 0 0 
0 0 0 
0 0 0 
0 0 0 
0 0 0 
0 0 0 
0 0 0 
0 0 0 
0 0 0 
0 0 0 
0.9942097 0.10371119 0.0281276 
0.99517035 0.09392153 0.028544191 
0.9960909 0.083551176 0.028672915 
0.9968787 0.07363905 0.028462717 
0 0 0 
0 0 0 
0 0 0 
0 0 0 
0 0 0 
0 0 0 
0 0 0 
0 0 0 
0 0 0 
0 0 0 
0 0 0 
0.9947517 0.09866452 0.02709979 
0.99507654 0.09509227 0.02793124 
0.9955227 0.09018923 0.028295362 
0.9959877 0.084872745 0.02837534 
0.996475 0.07901953 0.028170424 
0.9970347 0.0719 0.027424676 
0 0 0 
0 0 0 
0 0 0 
0 0 0 
0 0 0 
0 0 0 
0 0 0 
0 0 0 
0 0 0 
0 0 0 
0.9957812 0.08760012 0.027313318 
0.99575424 0.087735854 0.027855845 
0.9958205 0.08690245 0.028099833 
0.9957447 0.087754264 0.028139206 
0.99591607 0.08584704 0.027957218 
0.9961707 0.08300324 0.027466994 
0 0 0 
0 0 0 
0 0 0 
0 0 0 
0 0 0 
0 0 0 
0 0 0 
0 0 0 
0 0 0 
0 0 0 
0.9967496 0.075773746 0.027360817 
0.9963408 0.08080434 0.02785175 
0.99588364 0.086191915 0.028050961 
0.9956179 0.08921211 0.028040163 
0.9952412 0.09338419 0.027826535 
0.9950821 0.09521492 0.027308982 
0 0 0 
0 0 0 
0 0 0 
0 0 0 
0 0 0 
0 0 0 
0 0 0 
0 0 0 
0 0 0 
0 0 0 
0.9975225 0.06486532 0.027230984 
0.99682266 0.07459181 0.027939383 
0.9960657 0.084028944 0.028150203 
0.9952473 0.09323707 0.028099675 
0.9944667 0.10131296 0.027778447 
0.99392456 0.10669839 0.027010588 
0 0 0 
0 0 0 
0 0 0 
0 0 0 
0 0 0 
0 0 0 
0 0 0 
0 0 0 
0 0 0 
0 0 0 
0 0 0 
0.99712914 0.07030187 0.028127814 
0.99611664 0.08335403 0.028349474 
0.9948301 0.09754475 0.028251713 
0.99353355 0.11006577 0.027869368 
0 0 0 
0 0 0 
0 0 0 
0 0 0 
0 0 0 
0 0 0 
0 0 0 
0 0 0 
0 0 0 
0 0 0 
0 0 0 
0 0 0 
0 0 0 
0 0 0 
0 0 0 
0 0 0 
0 0 0 
0 0 0 
0 0 0 
0 0 0 
0 0 0 
0 0 0 
0 0 0 
0 0 0 
0 0 0 
0 0 0 
0 0 0 
0 0 0 
0 0 0 
0 0 0 
0 0 0 
0 0 0 
0 0 0 
0 0 0 
0 0 0 
0 0 0 
0 0 0 
0 0 0 
0 0 0 
0 0 0 
# End: Data Text
# End: Segment
