# OOMMF: rectangular mesh v1.0
# Segment count: 1
# Begin: Segment
# Begin: Header
# Desc: Time (s) :  3.0600144611853383e-09
# Title: m
# meshtype: rectangular
# meshunit: m
# xbase: 2.5e-09
# ybase: 2.5e-09
# zbase: 2.25e-08
# xstepsize: 5e-09
# ystepsize: 5e-09
# zstepsize: 4.5e-08
# xmin: 0
# ymin: 0
# zmin: 0
# xmax: 8e-08
# ymax: 1.6e-07
# zmax: 4.5e-08
# xnodes: 16
# ynodes: 32
# znodes: 1
# ValueRangeMinMag: 1e-08
# ValueRangeMaxMag: 1
# valueunit: 
# valuemultiplier: 1
# End: Header
# Begin: Data Text
0 0 0 
0 0 0 
0 0 0 
0 0 0 
0 0 0 
0 0 0 
0 0 0 
0 0 0 
0 0 0 
0 0 0 
0 0 0 
0 0 0 
0 0 0 
0 0 0 
0 0 0 
0 0 0 
0 0 0 
0 0 0 
0 0 0 
0 0 0 
0 0 0 
0 0 0 
0 0 0 
0 0 0 
0 0 0 
0 0 0 
0 0 0 
0 0 0 
0 0 0 
0 0 0 
0 0 0 
0 0 0 
0 0 0 
0 0 0 
0 0 0 
0 0 0 
0 0 0 
0 0 0 
0 0 0 
0 0 0 
0 0 0 
0 0 0 
0 0 0 
0 0 0 
0 0 0 
0 0 0 
0 0 0 
0 0 0 
0 0 0 
0 0 0 
0 0 0 
0 0 0 
0 0 0 
0 0 0 
0 0 0 
0 0 0 
0 0 0 
0 0 0 
0 0 0 
0 0 0 
0 0 0 
0 0 0 
0 0 0 
0 0 0 
0 0 0 
0 0 0 
0 0 0 
0 0 0 
0 0 0 
0 0 0 
0 0 0 
0 0 0 
0 0 0 
0 0 0 
0 0 0 
0 0 0 
0 0 0 
0 0 0 
0 0 0 
0 0 0 
0 0 0 
0 0 0 
0 0 0 
0 0 0 
0 0 0 
0 0 0 
0 0 0 
0 0 0 
0 0 0 
0 0 0 
0 0 0 
0 0 0 
0 0 0 
0 0 0 
0 0 0 
0 0 0 
0 0 0 
0 0 0 
0 0 0 
0 0 0 
0 0 0 
0 0 0 
0.99571884 0.09243284 0.00043944587 
0.9966047 0.08233407 0.0004294634 
0.9974282 0.07167259 0.00040865078 
0 0 0 
0 0 0 
0 0 0 
0 0 0 
0 0 0 
0 0 0 
0 0 0 
0 0 0 
0 0 0 
0 0 0 
0 0 0 
0 0 0 
0.99534225 0.0964031 0.00044870423 
0.99606335 0.08864364 0.0004456259 
0.9967142 0.08099915 0.00041756826 
0.99737287 0.07243878 0.00041103366 
0.9980857 0.061846893 0.00038934924 
0 0 0 
0 0 0 
0 0 0 
0 0 0 
0 0 0 
0 0 0 
0 0 0 
0 0 0 
0 0 0 
0 0 0 
0.99583024 0.09122505 0.0004279347 
0.9958813 0.09066644 0.00044523395 
0.9962789 0.086187 0.00042583267 
0.99668217 0.08139187 0.00043205728 
0.99709976 0.07610521 0.00040332272 
0.99752426 0.07032271 0.00040464985 
0 0 0 
0 0 0 
0 0 0 
0 0 0 
0 0 0 
0 0 0 
0 0 0 
0 0 0 
0 0 0 
0 0 0 
0.99631536 0.085764706 0.00042498528 
0.9963005 0.08593626 0.00042560828 
0.99641526 0.08459707 0.00043781553 
0.99661374 0.08222506 0.0004142167 
0.9968064 0.079855986 0.00042537405 
0.996871 0.07904441 0.0004126835 
0 0 0 
0 0 0 
0 0 0 
0 0 0 
0 0 0 
0 0 0 
0 0 0 
0 0 0 
0 0 0 
0 0 0 
0 0 0 
0.99690586 0.07860357 0.00042352322 
0.99662167 0.08212822 0.00041772603 
0.99655485 0.08293515 0.0004328223 
0.99656147 0.082856335 0.00042093755 
0.99637043 0.085122846 0.00042435448 
0 0 0 
0 0 0 
0 0 0 
0 0 0 
0 0 0 
0 0 0 
0 0 0 
0 0 0 
0 0 0 
0 0 0 
0 0 0 
0.9975541 0.06989743 0.00040725447 
0.9969869 0.07756915 0.000421442 
0.9965045 0.08353909 0.00042608567 
0.9961021 0.08820676 0.00043544875 
0 0 0 
0 0 0 
0 0 0 
0 0 0 
0 0 0 
0 0 0 
0 0 0 
0 0 0 
0 0 0 
0 0 0 
0 0 0 
0 0 0 
0 0 0 
0 0 0 
0 0 0 
0 0 0 
0 0 0 
0 0 0 
0 0 0 
0 0 0 
0 0 0 
0 0 0 
0 0 0 
0 0 0 
0 0 0 
0 0 0 
0 0 0 
0 0 0 
0 0 0 
0 0 0 
0 0 0 
0 0 0 
0 0 0 
0 0 0 
0 0 0 
0 0 0 
0 0 0 
0 0 0 
0 0 0 
0 0 0 
0 0 0 
0 0 0 
0 0 0 
0 0 0 
0 0 0 
0.9956572 0.0930942 0.00044475324 
0.99616337 0.08751278 0.0003722219 
0.9966969 0.08121028 0.0004313555 
0 0 0 
0 0 0 
0 0 0 
0 0 0 
0 0 0 
0 0 0 
0 0 0 
0 0 0 
0 0 0 
0 0 0 
0 0 0 
0 0 0 
0.99599934 0.08935998 0.00043356844 
0.9961919 0.087186664 0.00029629638 
0.99643576 0.08435434 0.00053024315 
0.9967793 0.080193646 0.000304673 
0.99738324 0.072294824 0.00042000174 
0 0 0 
0 0 0 
0 0 0 
0 0 0 
0 0 0 
0 0 0 
0 0 0 
0 0 0 
0 0 0 
0 0 0 
0.996896 0.078728355 0.0003741722 
0.9966805 0.08141331 0.00026550324 
0.9966164 0.08219116 0.00056021987 
0.99652696 0.08327069 0.00020406848 
0.9965699 0.08275335 0.0005490454 
0.9967926 0.08002821 0.00034134192 
0 0 0 
0 0 0 
0 0 0 
0 0 0 
0 0 0 
0 0 0 
0 0 0 
0 0 0 
0 0 0 
0 0 0 
0.9975109 0.07051182 0.00029410113 
0.9972069 0.07468767 0.00048137174 
0.9968696 0.07906361 0.00018240989 
0.99658334 0.08259228 0.00059920445 
0.9963199 0.0857126 0.0002385357 
0.99622864 0.08676591 0.0004908571 
0.9965405 0.08310798 0.00037287822 
0 0 0 
0 0 0 
0 0 0 
0 0 0 
0 0 0 
0 0 0 
0 0 0 
0 0 0 
0 0 0 
0.998101 0.06159804 0.00034715093 
0.9976858 0.067993574 0.00024685843 
0.9971186 0.075856745 0.0005153716 
0.99652827 0.08325588 0.00022586752 
0.99600613 0.089283325 0.00054035644 
0.9953674 0.09614428 0.00037527306 
0 0 0 
0 0 0 
0 0 0 
0 0 0 
0 0 0 
0 0 0 
0 0 0 
0 0 0 
0 0 0 
0 0 0 
0 0 0 
0.9981044 0.061542876 0.00036883383 
0.99736214 0.072586715 0.0003044227 
0.99639374 0.084849246 0.0004810792 
0.9954605 0.09517472 0.00037035305 
0.99434197 0.106225334 0.00045655493 
0 0 0 
0 0 0 
0 0 0 
0 0 0 
0 0 0 
0 0 0 
0 0 0 
0 0 0 
0 0 0 
0 0 0 
0 0 0 
0 0 0 
0 0 0 
0.9959485 0.08992498 0.00039244053 
0 0 0 
0 0 0 
0 0 0 
0 0 0 
0 0 0 
0 0 0 
0 0 0 
0 0 0 
0 0 0 
0 0 0 
0 0 0 
0 0 0 
0 0 0 
0 0 0 
0 0 0 
0 0 0 
0 0 0 
0 0 0 
0 0 0 
0 0 0 
0 0 0 
0 0 0 
0 0 0 
0 0 0 
0 0 0 
0 0 0 
0 0 0 
0 0 0 
0 0 0 
0 0 0 
0 0 0 
0 0 0 
0 0 0 
0 0 0 
0 0 0 
0 0 0 
0 0 0 
0 0 0 
0 0 0 
0 0 0 
0 0 0 
0 0 0 
0 0 0 
0 0 0 
0 0 0 
0 0 0 
0 0 0 
0 0 0 
0 0 0 
0 0 0 
0 0 0 
0 0 0 
0 0 0 
0 0 0 
0 0 0 
0 0 0 
0 0 0 
0 0 0 
0 0 0 
0 0 0 
0.9946851 0.10291741 0.0030908736 
0.9956225 0.09341722 0.0030127254 
0.99657947 0.08257916 0.0031960746 
0.9973284 0.07298519 0.0030575523 
0 0 0 
0 0 0 
0 0 0 
0 0 0 
0 0 0 
0 0 0 
0 0 0 
0 0 0 
0 0 0 
0 0 0 
0 0 0 
0.9951777 0.09804244 0.0030150246 
0.9954785 0.09494357 0.0028838576 
0.9960315 0.088940345 0.0033127465 
0.9963913 0.08483076 0.00285993 
0.9969536 0.077929646 0.0032424834 
0.997443 0.07140505 0.002972619 
0 0 0 
0 0 0 
0 0 0 
0 0 0 
0 0 0 
0 0 0 
0 0 0 
0 0 0 
0 0 0 
0 0 0 
0.9961722 0.08736374 0.0029258458 
0.9962359 0.08662218 0.0032864907 
0.99618423 0.08723323 0.002745774 
0.9962606 0.086333275 0.0033973716 
0.99629927 0.08590531 0.0028266767 
0.99660736 0.082245596 0.0030966967 
0 0 0 
0 0 0 
0 0 0 
0 0 0 
0 0 0 
0 0 0 
0 0 0 
0 0 0 
0 0 0 
0 0 0 
0.9971665 0.07516232 0.0031064216 
0.9967099 0.08100337 0.0028310183 
0.9963855 0.084878586 0.003395646 
0.9959734 0.08960776 0.0027364905 
0.9957268 0.09229038 0.0032720158 
0.99547666 0.09496246 0.002908484 
0 0 0 
0 0 0 
0 0 0 
0 0 0 
0 0 0 
0 0 0 
0 0 0 
0 0 0 
0 0 0 
0 0 0 
0.9979051 0.06462642 0.002975503 
0.9972684 0.07379264 0.0032373162 
0.9964395 0.08426242 0.0028459711 
0.99573386 0.09221412 0.0032937236 
0.9948486 0.10133192 0.002860514 
0.99434435 0.10616236 0.0029920468 
0 0 0 
0 0 0 
0 0 0 
0 0 0 
0 0 0 
0 0 0 
0 0 0 
0 0 0 
0 0 0 
0 0 0 
0 0 0 
0.99753714 0.070075005 0.0030402713 
0.99656266 0.08278186 0.0031742316 
0.9952416 0.09739216 0.0029855657 
0.99397403 0.10957298 0.0030620503 
0 0 0 
0 0 0 
0 0 0 
0 0 0 
0 0 0 
0 0 0 
0 0 0 
0 0 0 
0 0 0 
0 0 0 
0 0 0 
0 0 0 
0 0 0 
0 0 0 
0 0 0 
0 0 0 
0 0 0 
0 0 0 
0 0 0 
0 0 0 
0 0 0 
0 0 0 
0 0 0 
0 0 0 
0 0 0 
0 0 0 
0 0 0 
0 0 0 
0 0 0 
0 0 0 
0 0 0 
0 0 0 
0 0 0 
0 0 0 
0 0 0 
0 0 0 
0 0 0 
0 0 0 
0 0 0 
0 0 0 
# End: Data Text
# End: Segment
