# OOMMF: rectangular mesh v1.0
# Segment count: 1
# Begin: Segment
# Begin: Header
# Desc: Time (s) :  5.133455824117504e-09
# Title: m
# meshtype: rectangular
# meshunit: m
# xbase: 2.5e-09
# ybase: 2.5e-09
# zbase: 2.25e-08
# xstepsize: 5e-09
# ystepsize: 5e-09
# zstepsize: 4.5e-08
# xmin: 0
# ymin: 0
# zmin: 0
# xmax: 8e-08
# ymax: 1.6e-07
# zmax: 4.5e-08
# xnodes: 16
# ynodes: 32
# znodes: 1
# ValueRangeMinMag: 1e-08
# ValueRangeMaxMag: 1
# valueunit: 
# valuemultiplier: 1
# End: Header
# Begin: Data Text
0 0 0 
0 0 0 
0 0 0 
0 0 0 
0 0 0 
0 0 0 
0 0 0 
0 0 0 
0 0 0 
0 0 0 
0 0 0 
0 0 0 
0 0 0 
0 0 0 
0 0 0 
0 0 0 
0 0 0 
0 0 0 
0 0 0 
0 0 0 
0 0 0 
0 0 0 
0 0 0 
0 0 0 
0 0 0 
0 0 0 
0 0 0 
0 0 0 
0 0 0 
0 0 0 
0 0 0 
0 0 0 
0 0 0 
0 0 0 
0 0 0 
0 0 0 
0 0 0 
0 0 0 
0 0 0 
0 0 0 
0 0 0 
0 0 0 
0 0 0 
0 0 0 
0 0 0 
0 0 0 
0 0 0 
0 0 0 
0 0 0 
0 0 0 
0 0 0 
0 0 0 
0 0 0 
0 0 0 
0 0 0 
0 0 0 
0 0 0 
0 0 0 
0 0 0 
0 0 0 
0 0 0 
0 0 0 
0 0 0 
0 0 0 
0 0 0 
0 0 0 
0 0 0 
0 0 0 
0 0 0 
0 0 0 
0 0 0 
0 0 0 
0 0 0 
0 0 0 
0 0 0 
0 0 0 
0 0 0 
0 0 0 
0 0 0 
0 0 0 
0 0 0 
0 0 0 
0 0 0 
0 0 0 
0 0 0 
0 0 0 
0 0 0 
0 0 0 
0 0 0 
0 0 0 
0 0 0 
0 0 0 
0 0 0 
0 0 0 
0 0 0 
0 0 0 
0 0 0 
0 0 0 
0 0 0 
0 0 0 
0 0 0 
0 0 0 
0.99570996 0.0925286 0.00046283653 
0.99659723 0.0824249 0.000452461 
0.9974211 0.071770415 0.00043238903 
0 0 0 
0 0 0 
0 0 0 
0 0 0 
0 0 0 
0 0 0 
0 0 0 
0 0 0 
0 0 0 
0 0 0 
0 0 0 
0 0 0 
0.99533355 0.0964928 0.00047115475 
0.99605614 0.088723995 0.00046712384 
0.9967057 0.081102565 0.00044209667 
0.9973666 0.07252398 0.0004335881 
0.99807966 0.06194279 0.00041313542 
0 0 0 
0 0 0 
0 0 0 
0 0 0 
0 0 0 
0 0 0 
0 0 0 
0 0 0 
0 0 0 
0 0 0 
0.99582285 0.091305904 0.0004481241 
0.99587435 0.090742566 0.00046564665 
0.99627 0.086290404 0.00044991536 
0.996676 0.081466846 0.00045295458 
0.9970917 0.07621059 0.00042835707 
0.997518 0.0704121 0.00042784432 
0 0 0 
0 0 0 
0 0 0 
0 0 0 
0 0 0 
0 0 0 
0 0 0 
0 0 0 
0 0 0 
0 0 0 
0.9963087 0.08584164 0.00044423918 
0.9962925 0.08603102 0.00044811264 
0.9964089 0.08467118 0.0004583118 
0.9966048 0.08233333 0.0004392567 
0.9967998 0.079936676 0.00044713254 
0.9968633 0.079142734 0.0004368949 
0 0 0 
0 0 0 
0 0 0 
0 0 0 
0 0 0 
0 0 0 
0 0 0 
0 0 0 
0 0 0 
0 0 0 
0 0 0 
0.9968992 0.07868844 0.00044550092 
0.99661326 0.08223005 0.00044191495 
0.9965481 0.08301618 0.00045466234 
0.9965529 0.08295874 0.00044574504 
0.9963626 0.08521374 0.00044774063 
0 0 0 
0 0 0 
0 0 0 
0 0 0 
0 0 0 
0 0 0 
0 0 0 
0 0 0 
0 0 0 
0 0 0 
0 0 0 
0.99754757 0.06999121 0.0004303297 
0.99697995 0.07765845 0.0004442346 
0.99649626 0.08363712 0.00045011935 
0.9960938 0.08829951 0.00045932506 
0 0 0 
0 0 0 
0 0 0 
0 0 0 
0 0 0 
0 0 0 
0 0 0 
0 0 0 
0 0 0 
0 0 0 
0 0 0 
0 0 0 
0 0 0 
0 0 0 
0 0 0 
0 0 0 
0 0 0 
0 0 0 
0 0 0 
0 0 0 
0 0 0 
0 0 0 
0 0 0 
0 0 0 
0 0 0 
0 0 0 
0 0 0 
0 0 0 
0 0 0 
0 0 0 
0 0 0 
0 0 0 
0 0 0 
0 0 0 
0 0 0 
0 0 0 
0 0 0 
0 0 0 
0 0 0 
0 0 0 
0 0 0 
0 0 0 
0 0 0 
0 0 0 
0 0 0 
0.995648 0.09319276 0.00045698584 
0.9961527 0.08763424 0.00041702372 
0.9966888 0.08131042 0.00044474282 
0 0 0 
0 0 0 
0 0 0 
0 0 0 
0 0 0 
0 0 0 
0 0 0 
0 0 0 
0 0 0 
0 0 0 
0 0 0 
0 0 0 
0.9959918 0.089443795 0.00043834368 
0.99618 0.0873229 0.00037202353 
0.9964305 0.08441547 0.0004942714 
0.99676853 0.08032794 0.00037531348 
0.9973766 0.07238576 0.00043060302 
0 0 0 
0 0 0 
0 0 0 
0 0 0 
0 0 0 
0 0 0 
0 0 0 
0 0 0 
0 0 0 
0 0 0 
0.9968898 0.078807116 0.00038262238 
0.9966699 0.08154195 0.00033954505 
0.9966132 0.082231 0.00050043873 
0.9965134 0.08343285 0.00031992802 
0.99656576 0.082803234 0.00050165405 
0.9967832 0.08014542 0.00039321935 
0 0 0 
0 0 0 
0 0 0 
0 0 0 
0 0 0 
0 0 0 
0 0 0 
0 0 0 
0 0 0 
0 0 0 
0.9975038 0.07061262 0.00033473346 
0.9972031 0.074737936 0.00044300652 
0.9968569 0.07922184 0.0002973028 
0.996581 0.08262017 0.0005226692 
0.99630696 0.085863225 0.00034121267 
0.9962229 0.08683154 0.00047331597 
0.996533 0.0831977 0.00039991023 
0 0 0 
0 0 0 
0 0 0 
0 0 0 
0 0 0 
0 0 0 
0 0 0 
0 0 0 
0 0 0 
0.9980961 0.061677083 0.00035600798 
0.9976773 0.06811698 0.00031507437 
0.99711525 0.07590206 0.00046653557 
0.9965155 0.08340657 0.00032851912 
0.99600136 0.08933681 0.000502735 
0.9953566 0.09625528 0.00042300034 
0 0 0 
0 0 0 
0 0 0 
0 0 0 
0 0 0 
0 0 0 
0 0 0 
0 0 0 
0 0 0 
0 0 0 
0 0 0 
0.99809915 0.061627466 0.00037764665 
0.9973537 0.07270169 0.0003558998 
0.9963877 0.08491921 0.00046398284 
0.9954497 0.09528727 0.00041866757 
0.9943327 0.106312715 0.00047021534 
0 0 0 
0 0 0 
0 0 0 
0 0 0 
0 0 0 
0 0 0 
0 0 0 
0 0 0 
0 0 0 
0 0 0 
0 0 0 
0 0 0 
0 0 0 
0.9959385 0.09003486 0.0004230871 
0 0 0 
0 0 0 
0 0 0 
0 0 0 
0 0 0 
0 0 0 
0 0 0 
0 0 0 
0 0 0 
0 0 0 
0 0 0 
0 0 0 
0 0 0 
0 0 0 
0 0 0 
0 0 0 
0 0 0 
0 0 0 
0 0 0 
0 0 0 
0 0 0 
0 0 0 
0 0 0 
0 0 0 
0 0 0 
0 0 0 
0 0 0 
0 0 0 
0 0 0 
0 0 0 
0 0 0 
0 0 0 
0 0 0 
0 0 0 
0 0 0 
0 0 0 
0 0 0 
0 0 0 
0 0 0 
0 0 0 
0 0 0 
0 0 0 
0 0 0 
0 0 0 
0 0 0 
0 0 0 
0 0 0 
0 0 0 
0 0 0 
0 0 0 
0 0 0 
0 0 0 
0 0 0 
0 0 0 
0 0 0 
0 0 0 
0 0 0 
0 0 0 
0 0 0 
0 0 0 
0.99465907 0.10316886 0.003092658 
0.9956264 0.093375616 0.0030239793 
0.9965513 0.08291804 0.0031946818 
0.99732506 0.0730299 0.003065616 
0 0 0 
0 0 0 
0 0 0 
0 0 0 
0 0 0 
0 0 0 
0 0 0 
0 0 0 
0 0 0 
0 0 0 
0 0 0 
0.99515384 0.09828473 0.0030156167 
0.9955011 0.09470602 0.0029009494 
0.9959696 0.089631826 0.003299747 
0.99642533 0.0844295 0.0028825249 
0.99691254 0.0784532 0.0032347527 
0.99744046 0.07144054 0.0029804378 
0 0 0 
0 0 0 
0 0 0 
0 0 0 
0 0 0 
0 0 0 
0 0 0 
0 0 0 
0 0 0 
0 0 0 
0.9961769 0.08730998 0.0029363404 
0.9961759 0.087309964 0.0032732391 
0.9962383 0.086612076 0.0027753941 
0.99618167 0.08723928 0.0033772371 
0.9963341 0.0855002 0.00284919 
0.9965801 0.08257433 0.0030949512 
0 0 0 
0 0 0 
0 0 0 
0 0 0 
0 0 0 
0 0 0 
0 0 0 
0 0 0 
0 0 0 
0 0 0 
0.9971417 0.075490355 0.0031045857 
0.9967428 0.0805958 0.002853269 
0.99630797 0.08578472 0.0033753575 
0.9960291 0.08898575 0.0027661736 
0.99566287 0.092978 0.003258643 
0.99548167 0.09490922 0.0029191494 
0 0 0 
0 0 0 
0 0 0 
0 0 0 
0 0 0 
0 0 0 
0 0 0 
0 0 0 
0 0 0 
0 0 0 
0.997903 0.064659186 0.0029830353 
0.99722964 0.07431462 0.003229402 
0.99647367 0.08385681 0.0028686372 
0.9956696 0.09290451 0.0032806378 
0.994873 0.10109225 0.0028773684 
0.9943185 0.10640378 0.0029930105 
0 0 0 
0 0 0 
0 0 0 
0 0 0 
0 0 0 
0 0 0 
0 0 0 
0 0 0 
0 0 0 
0 0 0 
0 0 0 
0.9975342 0.07011524 0.003048259 
0.9965347 0.08311804 0.003172769 
0.99524605 0.09734634 0.0029966321 
0.9939466 0.10982134 0.0030633628 
0 0 0 
0 0 0 
0 0 0 
0 0 0 
0 0 0 
0 0 0 
0 0 0 
0 0 0 
0 0 0 
0 0 0 
0 0 0 
0 0 0 
0 0 0 
0 0 0 
0 0 0 
0 0 0 
0 0 0 
0 0 0 
0 0 0 
0 0 0 
0 0 0 
0 0 0 
0 0 0 
0 0 0 
0 0 0 
0 0 0 
0 0 0 
0 0 0 
0 0 0 
0 0 0 
0 0 0 
0 0 0 
0 0 0 
0 0 0 
0 0 0 
0 0 0 
0 0 0 
0 0 0 
0 0 0 
0 0 0 
# End: Data Text
# End: Segment
