# OOMMF: rectangular mesh v1.0
# Segment count: 1
# Begin: Segment
# Begin: Header
# Desc: Time (s) :  1.4868743616990991e-08
# Title: m
# meshtype: rectangular
# meshunit: m
# xbase: 2.5e-09
# ybase: 2.5e-09
# zbase: 2.25e-08
# xstepsize: 5e-09
# ystepsize: 5e-09
# zstepsize: 4.5e-08
# xmin: 0
# ymin: 0
# zmin: 0
# xmax: 8e-08
# ymax: 1.6e-07
# zmax: 4.5e-08
# xnodes: 16
# ynodes: 32
# znodes: 1
# ValueRangeMinMag: 1e-08
# ValueRangeMaxMag: 1
# valueunit: 
# valuemultiplier: 1
# End: Header
# Begin: Data Text
0 0 0 
0 0 0 
0 0 0 
0 0 0 
0 0 0 
0 0 0 
0 0 0 
0 0 0 
0 0 0 
0 0 0 
0 0 0 
0 0 0 
0 0 0 
0 0 0 
0 0 0 
0 0 0 
0 0 0 
0 0 0 
0 0 0 
0 0 0 
0 0 0 
0 0 0 
0 0 0 
0 0 0 
0 0 0 
0 0 0 
0 0 0 
0 0 0 
0 0 0 
0 0 0 
0 0 0 
0 0 0 
0 0 0 
0 0 0 
0 0 0 
0 0 0 
0 0 0 
0 0 0 
0 0 0 
0 0 0 
0 0 0 
0 0 0 
0 0 0 
0 0 0 
0 0 0 
0 0 0 
0 0 0 
0 0 0 
0 0 0 
0 0 0 
0 0 0 
0 0 0 
0 0 0 
0 0 0 
0 0 0 
0 0 0 
0 0 0 
0 0 0 
0 0 0 
0 0 0 
0 0 0 
0 0 0 
0 0 0 
0 0 0 
0 0 0 
0 0 0 
0 0 0 
0 0 0 
0 0 0 
0 0 0 
0 0 0 
0 0 0 
0 0 0 
0 0 0 
0 0 0 
0 0 0 
0 0 0 
0 0 0 
0 0 0 
0 0 0 
0 0 0 
0 0 0 
0 0 0 
0 0 0 
0 0 0 
0 0 0 
0 0 0 
0 0 0 
0 0 0 
0 0 0 
0 0 0 
0 0 0 
0 0 0 
0 0 0 
0 0 0 
0 0 0 
0 0 0 
0 0 0 
0 0 0 
0 0 0 
0 0 0 
0 0 0 
0.9969976 0.0748711 -0.019752044 
0.9977128 0.06456913 -0.020000216 
0.9983509 0.053798247 -0.020031832 
0 0 0 
0 0 0 
0 0 0 
0 0 0 
0 0 0 
0 0 0 
0 0 0 
0 0 0 
0 0 0 
0 0 0 
0 0 0 
0 0 0 
0.99661845 0.07992135 -0.019086624 
0.9972413 0.07161882 -0.019506887 
0.9977741 0.06367326 -0.019812865 
0.99828935 0.054949477 -0.019973513 
0.9988121 0.04444885 -0.01996925 
0 0 0 
0 0 0 
0 0 0 
0 0 0 
0 0 0 
0 0 0 
0 0 0 
0 0 0 
0 0 0 
0 0 0 
0.9969525 0.0759475 -0.017827371 
0.9970499 0.07441774 -0.018803805 
0.997403 0.069376715 -0.019341363 
0.99774426 0.064174905 -0.01969782 
0.99807435 0.05873261 -0.019950956 
0.99840003 0.052847244 -0.02011755 
0 0 0 
0 0 0 
0 0 0 
0 0 0 
0 0 0 
0 0 0 
0 0 0 
0 0 0 
0 0 0 
0 0 0 
0.99735737 0.07041646 -0.017884126 
0.9973993 0.069550164 -0.018908583 
0.99752057 0.06764858 -0.019403117 
0.9976902 0.064996764 -0.01973957 
0.9978505 0.06240714 -0.019994704 
0.9979003 0.061546788 -0.020174071 
0 0 0 
0 0 0 
0 0 0 
0 0 0 
0 0 0 
0 0 0 
0 0 0 
0 0 0 
0 0 0 
0 0 0 
0 0 0 
0.9979137 0.061565038 -0.019442383 
0.9976972 0.06491364 -0.019663874 
0.99765503 0.065482765 -0.019913066 
0.9976611 0.06533264 -0.020098904 
0.9975006 0.06773328 -0.020121673 
0 0 0 
0 0 0 
0 0 0 
0 0 0 
0 0 0 
0 0 0 
0 0 0 
0 0 0 
0 0 0 
0 0 0 
0 0 0 
0.998432 0.052463967 -0.019524632 
0.9979995 0.060023233 -0.01985509 
0.9976234 0.065906495 -0.02009843 
0.9973122 0.07040987 -0.020266911 
0 0 0 
0 0 0 
0 0 0 
0 0 0 
0 0 0 
0 0 0 
0 0 0 
0 0 0 
0 0 0 
0 0 0 
0 0 0 
0 0 0 
0 0 0 
0 0 0 
0 0 0 
0 0 0 
0 0 0 
0 0 0 
0 0 0 
0 0 0 
0 0 0 
0 0 0 
0 0 0 
0 0 0 
0 0 0 
0 0 0 
0 0 0 
0 0 0 
0 0 0 
0 0 0 
0 0 0 
0 0 0 
0 0 0 
0 0 0 
0 0 0 
0 0 0 
0 0 0 
0 0 0 
0 0 0 
0 0 0 
0 0 0 
0 0 0 
0 0 0 
0 0 0 
0 0 0 
0.9972503 0.073563375 -0.008955593 
0.9976585 0.0678036 -0.008957606 
0.99806446 0.06153511 -0.008990253 
0 0 0 
0 0 0 
0 0 0 
0 0 0 
0 0 0 
0 0 0 
0 0 0 
0 0 0 
0 0 0 
0 0 0 
0 0 0 
0 0 0 
0.9974041 0.07149365 -0.008589914 
0.9976133 0.06849786 -0.00870839 
0.9977952 0.06577244 -0.008875416 
0.9980805 0.06130416 -0.008789764 
0.9985043 0.053973474 -0.008722781 
0 0 0 
0 0 0 
0 0 0 
0 0 0 
0 0 0 
0 0 0 
0 0 0 
0 0 0 
0 0 0 
0 0 0 
0.9980239 0.062320404 -0.0080220895 
0.9979221 0.06389016 -0.008343767 
0.9978798 0.064506866 -0.008650733 
0.9978584 0.06484646 -0.0085807955 
0.9978599 0.06480333 -0.00873628 
0.998041 0.061968528 -0.008607328 
0 0 0 
0 0 0 
0 0 0 
0 0 0 
0 0 0 
0 0 0 
0 0 0 
0 0 0 
0 0 0 
0 0 0 
0.99850696 0.054037232 -0.007995954 
0.9982983 0.05770943 -0.00837809 
0.99808997 0.061203428 -0.00840878 
0.99784213 0.06508726 -0.008644744 
0.99766546 0.06776357 -0.008468372 
0.997541 0.069579 -0.0084177395 
0.9977155 0.067102045 -0.007817227 
0 0 0 
0 0 0 
0 0 0 
0 0 0 
0 0 0 
0 0 0 
0 0 0 
0 0 0 
0 0 0 
0.99894375 0.045245476 -0.00801862 
0.9986768 0.050753143 -0.008301674 
0.9982462 0.058577627 -0.008555458 
0.9978278 0.065327175 -0.008489053 
0.99737793 0.07185934 -0.00858236 
0.9968632 0.07869444 -0.008428681 
0 0 0 
0 0 0 
0 0 0 
0 0 0 
0 0 0 
0 0 0 
0 0 0 
0 0 0 
0 0 0 
0 0 0 
0 0 0 
0.998988 0.044172164 -0.008474015 
0.9984541 0.054923564 -0.008542768 
0.99771506 0.06700259 -0.0086901635 
0.99695665 0.077490695 -0.008531557 
0.99600506 0.08890115 -0.008392608 
0 0 0 
0 0 0 
0 0 0 
0 0 0 
0 0 0 
0 0 0 
0 0 0 
0 0 0 
0 0 0 
0 0 0 
0 0 0 
0 0 0 
0 0 0 
0.9974568 0.07072019 -0.008876299 
0 0 0 
0 0 0 
0 0 0 
0 0 0 
0 0 0 
0 0 0 
0 0 0 
0 0 0 
0 0 0 
0 0 0 
0 0 0 
0 0 0 
0 0 0 
0 0 0 
0 0 0 
0 0 0 
0 0 0 
0 0 0 
0 0 0 
0 0 0 
0 0 0 
0 0 0 
0 0 0 
0 0 0 
0 0 0 
0 0 0 
0 0 0 
0 0 0 
0 0 0 
0 0 0 
0 0 0 
0 0 0 
0 0 0 
0 0 0 
0 0 0 
0 0 0 
0 0 0 
0 0 0 
0 0 0 
0 0 0 
0 0 0 
0 0 0 
0 0 0 
0 0 0 
0 0 0 
0 0 0 
0 0 0 
0 0 0 
0 0 0 
0 0 0 
0 0 0 
0 0 0 
0 0 0 
0 0 0 
0 0 0 
0 0 0 
0 0 0 
0 0 0 
0 0 0 
0 0 0 
0.9941803 0.10653704 0.015984995 
0.9951436 0.097069405 0.016333861 
0.9961431 0.08622028 0.016278122 
0.99692607 0.07664 0.016272293 
0 0 0 
0 0 0 
0 0 0 
0 0 0 
0 0 0 
0 0 0 
0 0 0 
0 0 0 
0 0 0 
0 0 0 
0 0 0 
0.99471295 0.10153212 0.015409288 
0.99500346 0.09854222 0.0160533 
0.9955831 0.09252442 0.015927035 
0.99594456 0.08846716 0.016372627 
0.9965464 0.08149637 0.015930576 
0.99706626 0.0749188 0.01568925 
0 0 0 
0 0 0 
0 0 0 
0 0 0 
0 0 0 
0 0 0 
0 0 0 
0 0 0 
0 0 0 
0 0 0 
0.99573696 0.09090279 0.015640458 
0.9958006 0.090196155 0.015678948 
0.9957273 0.09089564 0.016288558 
0.99582475 0.08991467 0.015761597 
0.9958548 0.08951552 0.016136235 
0.9961947 0.085748754 0.015598088 
0 0 0 
0 0 0 
0 0 0 
0 0 0 
0 0 0 
0 0 0 
0 0 0 
0 0 0 
0 0 0 
0 0 0 
0.996775 0.07873117 0.015534313 
0.9962789 0.08467646 0.016073208 
0.99595153 0.08850938 0.015707025 
0.99550545 0.09329998 0.016250314 
0.9952704 0.09587414 0.015657553 
0.99501467 0.09849532 0.015633587 
0 0 0 
0 0 0 
0 0 0 
0 0 0 
0 0 0 
0 0 0 
0 0 0 
0 0 0 
0 0 0 
0 0 0 
0.9975465 0.0682548 0.015568919 
0.9968681 0.077491686 0.01578625 
0.99598616 0.08802343 0.016232513 
0.9952654 0.09590166 0.015802406 
0.99434364 0.105006374 0.015954055 
0.9938473 0.10969045 0.015347609 
0 0 0 
0 0 0 
0 0 0 
0 0 0 
0 0 0 
0 0 0 
0 0 0 
0 0 0 
0 0 0 
0 0 0 
0 0 0 
0.9971345 0.07392432 0.016061503 
0.996113 0.08660626 0.01607279 
0.99473464 0.101203784 0.01614717 
0.9934317 0.11332797 0.015818475 
0 0 0 
0 0 0 
0 0 0 
0 0 0 
0 0 0 
0 0 0 
0 0 0 
0 0 0 
0 0 0 
0 0 0 
0 0 0 
0 0 0 
0 0 0 
0 0 0 
0 0 0 
0 0 0 
0 0 0 
0 0 0 
0 0 0 
0 0 0 
0 0 0 
0 0 0 
0 0 0 
0 0 0 
0 0 0 
0 0 0 
0 0 0 
0 0 0 
0 0 0 
0 0 0 
0 0 0 
0 0 0 
0 0 0 
0 0 0 
0 0 0 
0 0 0 
0 0 0 
0 0 0 
0 0 0 
0 0 0 
# End: Data Text
# End: Segment
