# OOMMF: rectangular mesh v1.0
# Segment count: 1
# Begin: Segment
# Begin: Header
# Desc: Time (s) :  1.1207234175444464e-08
# Title: m
# meshtype: rectangular
# meshunit: m
# xbase: 2.5e-09
# ybase: 2.5e-09
# zbase: 2.25e-08
# xstepsize: 5e-09
# ystepsize: 5e-09
# zstepsize: 4.5e-08
# xmin: 0
# ymin: 0
# zmin: 0
# xmax: 8e-08
# ymax: 1.6e-07
# zmax: 4.5e-08
# xnodes: 16
# ynodes: 32
# znodes: 1
# ValueRangeMinMag: 1e-08
# ValueRangeMaxMag: 1
# valueunit: 
# valuemultiplier: 1
# End: Header
# Begin: Data Text
0 0 0 
0 0 0 
0 0 0 
0 0 0 
0 0 0 
0 0 0 
0 0 0 
0 0 0 
0 0 0 
0 0 0 
0 0 0 
0 0 0 
0 0 0 
0 0 0 
0 0 0 
0 0 0 
0 0 0 
0 0 0 
0 0 0 
0 0 0 
0 0 0 
0 0 0 
0 0 0 
0 0 0 
0 0 0 
0 0 0 
0 0 0 
0 0 0 
0 0 0 
0 0 0 
0 0 0 
0 0 0 
0 0 0 
0 0 0 
0 0 0 
0 0 0 
0 0 0 
0 0 0 
0 0 0 
0 0 0 
0 0 0 
0 0 0 
0 0 0 
0 0 0 
0 0 0 
0 0 0 
0 0 0 
0 0 0 
0 0 0 
0 0 0 
0 0 0 
0 0 0 
0 0 0 
0 0 0 
0 0 0 
0 0 0 
0 0 0 
0 0 0 
0 0 0 
0 0 0 
0 0 0 
0 0 0 
0 0 0 
0 0 0 
0 0 0 
0 0 0 
0 0 0 
0 0 0 
0 0 0 
0 0 0 
0 0 0 
0 0 0 
0 0 0 
0 0 0 
0 0 0 
0 0 0 
0 0 0 
0 0 0 
0 0 0 
0 0 0 
0 0 0 
0 0 0 
0 0 0 
0 0 0 
0 0 0 
0 0 0 
0 0 0 
0 0 0 
0 0 0 
0 0 0 
0 0 0 
0 0 0 
0 0 0 
0 0 0 
0 0 0 
0 0 0 
0 0 0 
0 0 0 
0 0 0 
0 0 0 
0 0 0 
0 0 0 
0.9843009 0.17167765 0.040969647 
0.98585606 0.16236804 0.04152639 
0.9874628 0.15225954 0.04164259 
0 0 0 
0 0 0 
0 0 0 
0 0 0 
0 0 0 
0 0 0 
0 0 0 
0 0 0 
0 0 0 
0 0 0 
0 0 0 
0 0 0 
0.9843477 0.17172551 0.03962413 
0.9853183 0.1658523 0.0405076 
0.98635894 0.1593813 0.041155055 
0.9876243 0.15124334 0.041518122 
0.9892253 0.14037521 0.041570105 
0 0 0 
0 0 0 
0 0 0 
0 0 0 
0 0 0 
0 0 0 
0 0 0 
0 0 0 
0 0 0 
0 0 0 
0.98602456 0.16242261 0.037073035 
0.98546 0.16535416 0.039071273 
0.9858193 0.1629291 0.0401796 
0.9863936 0.15922843 0.040917326 
0.98711634 0.15454131 0.041452806 
0.98795515 0.14898059 0.04182569 
0 0 0 
0 0 0 
0 0 0 
0 0 0 
0 0 0 
0 0 0 
0 0 0 
0 0 0 
0 0 0 
0 0 0 
0.9868445 0.1573321 0.03720917 
0.9860995 0.16144264 0.039293773 
0.98600143 0.1617929 0.040302865 
0.98620075 0.1603982 0.040995445 
0.9864987 0.15841728 0.04152465 
0.98659444 0.15772302 0.041893378 
0 0 0 
0 0 0 
0 0 0 
0 0 0 
0 0 0 
0 0 0 
0 0 0 
0 0 0 
0 0 0 
0 0 0 
0 0 0 
0.9868343 0.15660714 0.040401783 
0.9861754 0.1605954 0.040831972 
0.9859508 0.16184007 0.041338347 
0.9859286 0.16187696 0.041721083 
0.9857099 0.16319533 0.04175182 
0 0 0 
0 0 0 
0 0 0 
0 0 0 
0 0 0 
0 0 0 
0 0 0 
0 0 0 
0 0 0 
0 0 0 
0 0 0 
0.98789406 0.14972322 0.04059893 
0.9866732 0.15740308 0.04123467 
0.98569006 0.16332757 0.041703418 
0.98483825 0.16830887 0.04202197 
0 0 0 
0 0 0 
0 0 0 
0 0 0 
0 0 0 
0 0 0 
0 0 0 
0 0 0 
0 0 0 
0 0 0 
0 0 0 
0 0 0 
0 0 0 
0 0 0 
0 0 0 
0 0 0 
0 0 0 
0 0 0 
0 0 0 
0 0 0 
0 0 0 
0 0 0 
0 0 0 
0 0 0 
0 0 0 
0 0 0 
0 0 0 
0 0 0 
0 0 0 
0 0 0 
0 0 0 
0 0 0 
0 0 0 
0 0 0 
0 0 0 
0 0 0 
0 0 0 
0 0 0 
0 0 0 
0 0 0 
0 0 0 
0 0 0 
0 0 0 
0 0 0 
0 0 0 
0.9799595 0.19679552 0.030838475 
0.9809688 0.19167686 0.0309891 
0.9820912 0.1858396 0.03099231 
0 0 0 
0 0 0 
0 0 0 
0 0 0 
0 0 0 
0 0 0 
0 0 0 
0 0 0 
0 0 0 
0 0 0 
0 0 0 
0 0 0 
0.9821082 0.18597792 0.02959499 
0.98200476 0.18641356 0.030278405 
0.9823519 0.18455607 0.030395748 
0.9831222 0.18038373 0.0305371 
0.9848211 0.17094237 0.030103633 
0 0 0 
0 0 0 
0 0 0 
0 0 0 
0 0 0 
0 0 0 
0 0 0 
0 0 0 
0 0 0 
0 0 0 
0.9851549 0.16942078 0.027683048 
0.983941 0.17611645 0.029036896 
0.98336667 0.17921373 0.029538585 
0.9830304 0.18097422 0.02999378 
0.98312783 0.18046455 0.029871128 
0.9837737 0.17691384 0.029847957 
0 0 0 
0 0 0 
0 0 0 
0 0 0 
0 0 0 
0 0 0 
0 0 0 
0 0 0 
0 0 0 
0 0 0 
0.9864798 0.1615229 0.027714718 
0.9851945 0.16902314 0.028686326 
0.9841405 0.17493886 0.029394273 
0.9833756 0.17918219 0.029432876 
0.98292935 0.18159406 0.029557846 
0.98310584 0.18073937 0.028918762 
0.98491424 0.17091185 0.027078085 
0 0 0 
0 0 0 
0 0 0 
0 0 0 
0 0 0 
0 0 0 
0 0 0 
0 0 0 
0 0 0 
0.9878508 0.15292402 0.027660143 
0.9862857 0.16250983 0.028829899 
0.98470193 0.17178144 0.029213024 
0.9832891 0.17962876 0.02960011 
0.9823143 0.18492101 0.029376538 
0.98127323 0.19039543 0.029199418 
0 0 0 
0 0 0 
0 0 0 
0 0 0 
0 0 0 
0 0 0 
0 0 0 
0 0 0 
0 0 0 
0 0 0 
0 0 0 
0.98701805 0.15793853 0.029168336 
0.98513556 0.16921805 0.029551633 
0.98268366 0.18288441 0.02976856 
0.9811721 0.190867 0.029515943 
0.9793146 0.20026892 0.028902706 
0 0 0 
0 0 0 
0 0 0 
0 0 0 
0 0 0 
0 0 0 
0 0 0 
0 0 0 
0 0 0 
0 0 0 
0 0 0 
0 0 0 
0 0 0 
0.98047215 0.19427606 0.030516382 
0 0 0 
0 0 0 
0 0 0 
0 0 0 
0 0 0 
0 0 0 
0 0 0 
0 0 0 
0 0 0 
0 0 0 
0 0 0 
0 0 0 
0 0 0 
0 0 0 
0 0 0 
0 0 0 
0 0 0 
0 0 0 
0 0 0 
0 0 0 
0 0 0 
0 0 0 
0 0 0 
0 0 0 
0 0 0 
0 0 0 
0 0 0 
0 0 0 
0 0 0 
0 0 0 
0 0 0 
0 0 0 
0 0 0 
0 0 0 
0 0 0 
0 0 0 
0 0 0 
0 0 0 
0 0 0 
0 0 0 
0 0 0 
0 0 0 
0 0 0 
0 0 0 
0 0 0 
0 0 0 
0 0 0 
0 0 0 
0 0 0 
0 0 0 
0 0 0 
0 0 0 
0 0 0 
0 0 0 
0 0 0 
0 0 0 
0 0 0 
0 0 0 
0 0 0 
0 0 0 
0.9827042 0.18198934 0.034239784 
0.9842601 0.17330399 0.034609113 
0.9859284 0.16344708 0.035074987 
0.98744535 0.15410602 0.034685306 
0 0 0 
0 0 0 
0 0 0 
0 0 0 
0 0 0 
0 0 0 
0 0 0 
0 0 0 
0 0 0 
0 0 0 
0 0 0 
0.9843807 0.17292567 0.033036552 
0.9845277 0.1719493 0.03374491 
0.98524755 0.16755602 0.034818027 
0.9859753 0.16334173 0.034236208 
0.98704505 0.1566634 0.03462267 
0.98840076 0.14814082 0.03344054 
0 0 0 
0 0 0 
0 0 0 
0 0 0 
0 0 0 
0 0 0 
0 0 0 
0 0 0 
0 0 0 
0 0 0 
0.98619163 0.16225232 0.033170704 
0.9859384 0.16355015 0.034307852 
0.98582995 0.16431688 0.03375585 
0.98579156 0.16433021 0.034792844 
0.98608726 0.16277087 0.033729635 
0.9868487 0.15811025 0.03362844 
0 0 0 
0 0 0 
0 0 0 
0 0 0 
0 0 0 
0 0 0 
0 0 0 
0 0 0 
0 0 0 
0 0 0 
0.98802996 0.15057045 0.033546768 
0.9869637 0.15738884 0.033637438 
0.9861096 0.16243054 0.034702856 
0.9854961 0.16632338 0.033676628 
0.9850297 0.16894911 0.034246426 
0.98494196 0.16968152 0.033127937 
0 0 0 
0 0 0 
0 0 0 
0 0 0 
0 0 0 
0 0 0 
0 0 0 
0 0 0 
0 0 0 
0 0 0 
0.9895385 0.14038321 0.033259608 
0.9878865 0.15132017 0.034387477 
0.9862791 0.16155046 0.03398755 
0.98488885 0.16969973 0.034585763 
0.98357177 0.17737348 0.033543967 
0.9830454 0.18038689 0.032900106 
0 0 0 
0 0 0 
0 0 0 
0 0 0 
0 0 0 
0 0 0 
0 0 0 
0 0 0 
0 0 0 
0 0 0 
0 0 0 
0.9881916 0.149328 0.034328796 
0.9862096 0.16181925 0.03471695 
0.9838723 0.17555939 0.03426718 
0.9817633 0.18705642 0.033924475 
0 0 0 
0 0 0 
0 0 0 
0 0 0 
0 0 0 
0 0 0 
0 0 0 
0 0 0 
0 0 0 
0 0 0 
0 0 0 
0 0 0 
0 0 0 
0 0 0 
0 0 0 
0 0 0 
0 0 0 
0 0 0 
0 0 0 
0 0 0 
0 0 0 
0 0 0 
0 0 0 
0 0 0 
0 0 0 
0 0 0 
0 0 0 
0 0 0 
0 0 0 
0 0 0 
0 0 0 
0 0 0 
0 0 0 
0 0 0 
0 0 0 
0 0 0 
0 0 0 
0 0 0 
0 0 0 
0 0 0 
# End: Data Text
# End: Segment
