# OOMMF: rectangular mesh v1.0
# Segment count: 1
# Begin: Segment
# Begin: Header
# Desc: Time (s) :  3.1484365410340682e-09
# Title: m
# meshtype: rectangular
# meshunit: m
# xbase: 2.5e-09
# ybase: 2.5e-09
# zbase: 2.25e-08
# xstepsize: 5e-09
# ystepsize: 5e-09
# zstepsize: 4.5e-08
# xmin: 0
# ymin: 0
# zmin: 0
# xmax: 8e-08
# ymax: 1.6e-07
# zmax: 4.5e-08
# xnodes: 16
# ynodes: 32
# znodes: 1
# ValueRangeMinMag: 1e-08
# ValueRangeMaxMag: 1
# valueunit: 
# valuemultiplier: 1
# End: Header
# Begin: Data Text
0 0 0 
0 0 0 
0 0 0 
0 0 0 
0 0 0 
0 0 0 
0 0 0 
0 0 0 
0 0 0 
0 0 0 
0 0 0 
0 0 0 
0 0 0 
0 0 0 
0 0 0 
0 0 0 
0 0 0 
0 0 0 
0 0 0 
0 0 0 
0 0 0 
0 0 0 
0 0 0 
0 0 0 
0 0 0 
0 0 0 
0 0 0 
0 0 0 
0 0 0 
0 0 0 
0 0 0 
0 0 0 
0 0 0 
0 0 0 
0 0 0 
0 0 0 
0 0 0 
0 0 0 
0 0 0 
0 0 0 
0 0 0 
0 0 0 
0 0 0 
0 0 0 
0 0 0 
0 0 0 
0 0 0 
0 0 0 
0 0 0 
0 0 0 
0 0 0 
0 0 0 
0 0 0 
0 0 0 
0 0 0 
0 0 0 
0 0 0 
0 0 0 
0 0 0 
0 0 0 
0 0 0 
0 0 0 
0 0 0 
0 0 0 
0 0 0 
0 0 0 
0 0 0 
0 0 0 
0 0 0 
0 0 0 
0 0 0 
0 0 0 
0 0 0 
0 0 0 
0 0 0 
0 0 0 
0 0 0 
0 0 0 
0 0 0 
0 0 0 
0 0 0 
0 0 0 
0 0 0 
0 0 0 
0 0 0 
0 0 0 
0 0 0 
0 0 0 
0 0 0 
0 0 0 
0 0 0 
0 0 0 
0 0 0 
0 0 0 
0 0 0 
0 0 0 
0 0 0 
0 0 0 
0 0 0 
0 0 0 
0 0 0 
0 0 0 
0.98358595 0.18042992 0.0019347157 
0.98522604 0.17124836 0.0019192433 
0.9869114 0.16125213 0.0018969751 
0 0 0 
0 0 0 
0 0 0 
0 0 0 
0 0 0 
0 0 0 
0 0 0 
0 0 0 
0 0 0 
0 0 0 
0 0 0 
0 0 0 
0.9836808 0.17991227 0.0019073309 
0.98469025 0.17430337 0.0019028152 
0.9857755 0.1680567 0.0019178524 
0.98711693 0.15999001 0.0018716675 
0.98881465 0.14913812 0.0018538574 
0 0 0 
0 0 0 
0 0 0 
0 0 0 
0 0 0 
0 0 0 
0 0 0 
0 0 0 
0 0 0 
0 0 0 
0.9854388 0.17002115 0.0017883792 
0.98485106 0.1733924 0.0018573977 
0.98521775 0.1712966 0.0019106038 
0.98583066 0.16773307 0.0018756641 
0.9865896 0.1632097 0.0019019467 
0.98748696 0.15768965 0.0018763242 
0 0 0 
0 0 0 
0 0 0 
0 0 0 
0 0 0 
0 0 0 
0 0 0 
0 0 0 
0 0 0 
0 0 0 
0.9862993 0.16495645 0.0017784494 
0.98551804 0.1695605 0.0018694337 
0.98542434 0.17010434 0.0018701456 
0.9856299 0.16890816 0.0019199258 
0.9859589 0.1669777 0.0018908978 
0.9860626 0.16636412 0.0019149916 
0 0 0 
0 0 0 
0 0 0 
0 0 0 
0 0 0 
0 0 0 
0 0 0 
0 0 0 
0 0 0 
0 0 0 
0 0 0 
0.9862974 0.16496661 0.0018717813 
0.98560894 0.16903065 0.0019095053 
0.9853892 0.17030756 0.0019028609 
0.9853688 0.17042497 0.0019383795 
0.98514986 0.17168622 0.001918823 
0 0 0 
0 0 0 
0 0 0 
0 0 0 
0 0 0 
0 0 0 
0 0 0 
0 0 0 
0 0 0 
0 0 0 
0 0 0 
0.9873945 0.1582674 0.0018652886 
0.9861374 0.16591983 0.0018985753 
0.98512256 0.17184256 0.001938621 
0.9842348 0.17685631 0.0019517724 
0 0 0 
0 0 0 
0 0 0 
0 0 0 
0 0 0 
0 0 0 
0 0 0 
0 0 0 
0 0 0 
0 0 0 
0 0 0 
0 0 0 
0 0 0 
0 0 0 
0 0 0 
0 0 0 
0 0 0 
0 0 0 
0 0 0 
0 0 0 
0 0 0 
0 0 0 
0 0 0 
0 0 0 
0 0 0 
0 0 0 
0 0 0 
0 0 0 
0 0 0 
0 0 0 
0 0 0 
0 0 0 
0 0 0 
0 0 0 
0 0 0 
0 0 0 
0 0 0 
0 0 0 
0 0 0 
0 0 0 
0 0 0 
0 0 0 
0 0 0 
0 0 0 
0 0 0 
0.98228365 0.1873895 0.001994226 
0.98326385 0.18217607 0.0020431196 
0.98434347 0.17624971 0.0019819937 
0 0 0 
0 0 0 
0 0 0 
0 0 0 
0 0 0 
0 0 0 
0 0 0 
0 0 0 
0 0 0 
0 0 0 
0 0 0 
0 0 0 
0.9841731 0.17719983 0.0018756986 
0.9841452 0.17735322 0.002036806 
0.98449564 0.17539962 0.0018699327 
0.9852446 0.1711405 0.002035857 
0.98682195 0.16179891 0.0019035758 
0 0 0 
0 0 0 
0 0 0 
0 0 0 
0 0 0 
0 0 0 
0 0 0 
0 0 0 
0 0 0 
0 0 0 
0.9869215 0.16119298 0.0017069699 
0.9858743 0.16747594 0.0019160184 
0.98537904 0.17036785 0.0017586639 
0.9850995 0.1719732 0.0020723115 
0.98518693 0.17147441 0.0018186803 
0.98579574 0.16793759 0.001971057 
0 0 0 
0 0 0 
0 0 0 
0 0 0 
0 0 0 
0 0 0 
0 0 0 
0 0 0 
0 0 0 
0 0 0 
0.9881886 0.1532326 0.0017347572 
0.98704594 0.16042903 0.0016925314 
0.98610306 0.16612281 0.002002137 
0.98538584 0.17032836 0.0017381146 
0.9849677 0.17272654 0.0020476945 
0.98508084 0.1720828 0.0018343339 
0.986651 0.16283986 0.0017854398 
0 0 0 
0 0 0 
0 0 0 
0 0 0 
0 0 0 
0 0 0 
0 0 0 
0 0 0 
0 0 0 
0.98949015 0.14459103 0.0016602053 
0.9880944 0.15383801 0.0018437704 
0.98662597 0.16299167 0.0017250538 
0.98531634 0.17072667 0.002030776 
0.9843675 0.17611726 0.0018397381 
0.98335284 0.1816957 0.0019882347 
0 0 0 
0 0 0 
0 0 0 
0 0 0 
0 0 0 
0 0 0 
0 0 0 
0 0 0 
0 0 0 
0 0 0 
0 0 0 
0.9888245 0.14907414 0.0017638466 
0.9870645 0.16031276 0.0018953739 
0.9847691 0.17385769 0.001865115 
0.98328954 0.1820379 0.001999783 
0.98146814 0.1916155 0.0019430297 
0 0 0 
0 0 0 
0 0 0 
0 0 0 
0 0 0 
0 0 0 
0 0 0 
0 0 0 
0 0 0 
0 0 0 
0 0 0 
0 0 0 
0 0 0 
0.98280215 0.18465117 0.002004617 
0 0 0 
0 0 0 
0 0 0 
0 0 0 
0 0 0 
0 0 0 
0 0 0 
0 0 0 
0 0 0 
0 0 0 
0 0 0 
0 0 0 
0 0 0 
0 0 0 
0 0 0 
0 0 0 
0 0 0 
0 0 0 
0 0 0 
0 0 0 
0 0 0 
0 0 0 
0 0 0 
0 0 0 
0 0 0 
0 0 0 
0 0 0 
0 0 0 
0 0 0 
0 0 0 
0 0 0 
0 0 0 
0 0 0 
0 0 0 
0 0 0 
0 0 0 
0 0 0 
0 0 0 
0 0 0 
0 0 0 
0 0 0 
0 0 0 
0 0 0 
0 0 0 
0 0 0 
0 0 0 
0 0 0 
0 0 0 
0 0 0 
0 0 0 
0 0 0 
0 0 0 
0 0 0 
0 0 0 
0 0 0 
0 0 0 
0 0 0 
0 0 0 
0 0 0 
0 0 0 
0.9821592 0.18802966 0.0028766724 
0.9837818 0.17934822 0.0027446777 
0.98549676 0.16966793 0.002979889 
0.98706716 0.16028295 0.002792386 
0 0 0 
0 0 0 
0 0 0 
0 0 0 
0 0 0 
0 0 0 
0 0 0 
0 0 0 
0 0 0 
0 0 0 
0 0 0 
0.98390305 0.17868143 0.0028036574 
0.98407155 0.17775412 0.002591855 
0.9847913 0.1737133 0.003161261 
0.98557276 0.16923346 0.0025320647 
0.986655 0.16279648 0.0030574196 
0.98806584 0.15400809 0.0027175553 
0 0 0 
0 0 0 
0 0 0 
0 0 0 
0 0 0 
0 0 0 
0 0 0 
0 0 0 
0 0 0 
0 0 0 
0.98578686 0.16798002 0.0026611 
0.98550516 0.16961676 0.003135148 
0.9854268 0.17008334 0.0023894121 
0.9853475 0.17052759 0.003280414 
0.98568827 0.16855992 0.0025049539 
0.98645747 0.16399182 0.002894033 
0 0 0 
0 0 0 
0 0 0 
0 0 0 
0 0 0 
0 0 0 
0 0 0 
0 0 0 
0 0 0 
0 0 0 
0.9876775 0.15647648 0.0028939026 
0.9865903 0.16319728 0.0025030416 
0.9856728 0.16863765 0.003278198 
0.9850789 0.17208742 0.0023858657 
0.984563 0.17500243 0.003132427 
0.9844955 0.17538974 0.0026580724 
0 0 0 
0 0 0 
0 0 0 
0 0 0 
0 0 0 
0 0 0 
0 0 0 
0 0 0 
0 0 0 
0 0 0 
0.9892398 0.14627826 0.002714412 
0.9875176 0.15747942 0.0030519587 
0.9858758 0.16745919 0.0025232907 
0.9844097 0.1758628 0.0031539814 
0.9830776 0.18317144 0.0025835445 
0.98252183 0.18612649 0.0027985366 
0 0 0 
0 0 0 
0 0 0 
0 0 0 
0 0 0 
0 0 0 
0 0 0 
0 0 0 
0 0 0 
0 0 0 
0 0 0 
0.9878263 0.15553617 0.002780875 
0.98577154 0.16806464 0.0029676137 
0.9833659 0.18161541 0.0027318082 
0.9811753 0.19309755 0.002865176 
0 0 0 
0 0 0 
0 0 0 
0 0 0 
0 0 0 
0 0 0 
0 0 0 
0 0 0 
0 0 0 
0 0 0 
0 0 0 
0 0 0 
0 0 0 
0 0 0 
0 0 0 
0 0 0 
0 0 0 
0 0 0 
0 0 0 
0 0 0 
0 0 0 
0 0 0 
0 0 0 
0 0 0 
0 0 0 
0 0 0 
0 0 0 
0 0 0 
0 0 0 
0 0 0 
0 0 0 
0 0 0 
0 0 0 
0 0 0 
0 0 0 
0 0 0 
0 0 0 
0 0 0 
0 0 0 
0 0 0 
# End: Data Text
# End: Segment
