# OOMMF: rectangular mesh v1.0
# Segment count: 1
# Begin: Segment
# Begin: Header
# Desc: Time (s) :  3.88358777936703e-09
# Title: m
# meshtype: rectangular
# meshunit: m
# xbase: 2.5e-09
# ybase: 2.5e-09
# zbase: 2.25e-08
# xstepsize: 5e-09
# ystepsize: 5e-09
# zstepsize: 4.5e-08
# xmin: 0
# ymin: 0
# zmin: 0
# xmax: 8e-08
# ymax: 1.6e-07
# zmax: 4.5e-08
# xnodes: 16
# ynodes: 32
# znodes: 1
# ValueRangeMinMag: 1e-08
# ValueRangeMaxMag: 1
# valueunit: 
# valuemultiplier: 1
# End: Header
# Begin: Data Text
0 0 0 
0 0 0 
0 0 0 
0 0 0 
0 0 0 
0 0 0 
0 0 0 
0 0 0 
0 0 0 
0 0 0 
0 0 0 
0 0 0 
0 0 0 
0 0 0 
0 0 0 
0 0 0 
0 0 0 
0 0 0 
0 0 0 
0 0 0 
0 0 0 
0 0 0 
0 0 0 
0 0 0 
0 0 0 
0 0 0 
0 0 0 
0 0 0 
0 0 0 
0 0 0 
0 0 0 
0 0 0 
0 0 0 
0 0 0 
0 0 0 
0 0 0 
0 0 0 
0 0 0 
0 0 0 
0 0 0 
0 0 0 
0 0 0 
0 0 0 
0 0 0 
0 0 0 
0 0 0 
0 0 0 
0 0 0 
0 0 0 
0 0 0 
0 0 0 
0 0 0 
0 0 0 
0 0 0 
0 0 0 
0 0 0 
0 0 0 
0 0 0 
0 0 0 
0 0 0 
0 0 0 
0 0 0 
0 0 0 
0 0 0 
0 0 0 
0 0 0 
0 0 0 
0 0 0 
0 0 0 
0 0 0 
0 0 0 
0 0 0 
0 0 0 
0 0 0 
0 0 0 
0 0 0 
0 0 0 
0 0 0 
0 0 0 
0 0 0 
0 0 0 
0 0 0 
0 0 0 
0 0 0 
0 0 0 
0 0 0 
0 0 0 
0 0 0 
0 0 0 
0 0 0 
0 0 0 
0 0 0 
0 0 0 
0 0 0 
0 0 0 
0 0 0 
0 0 0 
0 0 0 
0 0 0 
0 0 0 
0 0 0 
0 0 0 
0.9835907 0.18040463 0.0018793518 
0.9852272 0.17124203 0.0018700652 
0.98691565 0.16122696 0.001839326 
0 0 0 
0 0 0 
0 0 0 
0 0 0 
0 0 0 
0 0 0 
0 0 0 
0 0 0 
0 0 0 
0 0 0 
0 0 0 
0 0 0 
0.9836858 0.17988558 0.0018551701 
0.98468804 0.17431594 0.0018650998 
0.9857846 0.168004 0.0018499012 
0.9871157 0.159998 0.0018279845 
0.98881865 0.14911239 0.0017962178 
0 0 0 
0 0 0 
0 0 0 
0 0 0 
0 0 0 
0 0 0 
0 0 0 
0 0 0 
0 0 0 
0 0 0 
0.9854425 0.16999985 0.0017437183 
0.98484915 0.1734035 0.0018228292 
0.9852287 0.17123377 0.001841227 
0.98582506 0.16776676 0.0018450767 
0.98659897 0.16315368 0.0018313106 
0.9874878 0.15768549 0.0018269285 
0 0 0 
0 0 0 
0 0 0 
0 0 0 
0 0 0 
0 0 0 
0 0 0 
0 0 0 
0 0 0 
0 0 0 
0.9863007 0.16494803 0.0017387347 
0.98552585 0.16951561 0.001810158 
0.9854192 0.17013459 0.0018405493 
0.985642 0.16883883 0.0018453969 
0.98595536 0.16699864 0.001853398 
0.986068 0.16633245 0.0018537128 
0 0 0 
0 0 0 
0 0 0 
0 0 0 
0 0 0 
0 0 0 
0 0 0 
0 0 0 
0 0 0 
0 0 0 
0 0 0 
0.9862977 0.16496515 0.0018282778 
0.98561776 0.16898018 0.0018440768 
0.9853859 0.17032665 0.0018652851 
0.98537666 0.17038003 0.0018724223 
0.9851516 0.17167638 0.001866659 
0 0 0 
0 0 0 
0 0 0 
0 0 0 
0 0 0 
0 0 0 
0 0 0 
0 0 0 
0 0 0 
0 0 0 
0 0 0 
0.98739827 0.15824495 0.0018119415 
0.9861386 0.16591378 0.0018507217 
0.9851281 0.17181173 0.0018795744 
0.9842368 0.1768454 0.0018997927 
0 0 0 
0 0 0 
0 0 0 
0 0 0 
0 0 0 
0 0 0 
0 0 0 
0 0 0 
0 0 0 
0 0 0 
0 0 0 
0 0 0 
0 0 0 
0 0 0 
0 0 0 
0 0 0 
0 0 0 
0 0 0 
0 0 0 
0 0 0 
0 0 0 
0 0 0 
0 0 0 
0 0 0 
0 0 0 
0 0 0 
0 0 0 
0 0 0 
0 0 0 
0 0 0 
0 0 0 
0 0 0 
0 0 0 
0 0 0 
0 0 0 
0 0 0 
0 0 0 
0 0 0 
0 0 0 
0 0 0 
0 0 0 
0 0 0 
0 0 0 
0 0 0 
0 0 0 
0.9822885 0.18736458 0.0019596345 
0.9832671 0.18215998 0.0019083887 
0.98434806 0.17622457 0.0019437768 
0 0 0 
0 0 0 
0 0 0 
0 0 0 
0 0 0 
0 0 0 
0 0 0 
0 0 0 
0 0 0 
0 0 0 
0 0 0 
0 0 0 
0.9841775 0.17717515 0.001865774 
0.9841466 0.17734766 0.0018085089 
0.9845022 0.17536156 0.001984463 
0.98524624 0.17113303 0.0018224161 
0.98682594 0.16177481 0.0018750873 
0 0 0 
0 0 0 
0 0 0 
0 0 0 
0 0 0 
0 0 0 
0 0 0 
0 0 0 
0 0 0 
0 0 0 
0.98692477 0.16117224 0.0016868457 
0.9858754 0.16747221 0.0016942975 
0.9853861 0.17032492 0.0019475752 
0.985099 0.17197992 0.0017209371 
0.98519367 0.17143425 0.00196961 
0.9857979 0.16792631 0.0018160929 
0 0 0 
0 0 0 
0 0 0 
0 0 0 
0 0 0 
0 0 0 
0 0 0 
0 0 0 
0 0 0 
0 0 0 
0.9881906 0.15322141 0.0016160815 
0.9870514 0.16039401 0.0018159802 
0.9861024 0.16613078 0.0016540666 
0.98539364 0.17028067 0.0019790137 
0.98496765 0.17273055 0.0017369685 
0.98508596 0.17205283 0.0018942936 
0.98665345 0.16282515 0.0017080987 
0 0 0 
0 0 0 
0 0 0 
0 0 0 
0 0 0 
0 0 0 
0 0 0 
0 0 0 
0 0 0 
0.98949313 0.14457078 0.0016377764 
0.9880954 0.15383343 0.0016399665 
0.98663205 0.16295302 0.001880761 
0.9853162 0.17073077 0.0017201712 
0.98437375 0.17608124 0.0019615425 
0.98335516 0.18168455 0.0018477541 
0 0 0 
0 0 0 
0 0 0 
0 0 0 
0 0 0 
0 0 0 
0 0 0 
0 0 0 
0 0 0 
0 0 0 
0 0 0 
0.98882776 0.14905249 0.0017421865 
0.98706645 0.1603024 0.001743162 
0.98477435 0.1738271 0.0019238405 
0.9832919 0.18202673 0.0018583251 
0.98147225 0.19159493 0.0019088316 
0 0 0 
0 0 0 
0 0 0 
0 0 0 
0 0 0 
0 0 0 
0 0 0 
0 0 0 
0 0 0 
0 0 0 
0 0 0 
0 0 0 
0 0 0 
0.98280585 0.18463254 0.0019159466 
0 0 0 
0 0 0 
0 0 0 
0 0 0 
0 0 0 
0 0 0 
0 0 0 
0 0 0 
0 0 0 
0 0 0 
0 0 0 
0 0 0 
0 0 0 
0 0 0 
0 0 0 
0 0 0 
0 0 0 
0 0 0 
0 0 0 
0 0 0 
0 0 0 
0 0 0 
0 0 0 
0 0 0 
0 0 0 
0 0 0 
0 0 0 
0 0 0 
0 0 0 
0 0 0 
0 0 0 
0 0 0 
0 0 0 
0 0 0 
0 0 0 
0 0 0 
0 0 0 
0 0 0 
0 0 0 
0 0 0 
0 0 0 
0 0 0 
0 0 0 
0 0 0 
0 0 0 
0 0 0 
0 0 0 
0 0 0 
0 0 0 
0 0 0 
0 0 0 
0 0 0 
0 0 0 
0 0 0 
0 0 0 
0 0 0 
0 0 0 
0 0 0 
0 0 0 
0 0 0 
0.9821604 0.188025 0.0027571404 
0.9837989 0.17925493 0.0027165222 
0.98549384 0.16968746 0.0028314705 
0.9870785 0.16021425 0.0027363796 
0 0 0 
0 0 0 
0 0 0 
0 0 0 
0 0 0 
0 0 0 
0 0 0 
0 0 0 
0 0 0 
0 0 0 
0 0 0 
0.9839038 0.17867866 0.0026883937 
0.98409826 0.17760599 0.0026260498 
0.98476964 0.17384043 0.0029029213 
0.9856067 0.16903438 0.0026167613 
0.98664296 0.1628735 0.002852072 
0.9880763 0.1539421 0.002666222 
0 0 0 
0 0 0 
0 0 0 
0 0 0 
0 0 0 
0 0 0 
0 0 0 
0 0 0 
0 0 0 
0 0 0 
0.9858023 0.1678895 0.0026387095 
0.9854839 0.16974485 0.0028792452 
0.9854718 0.16982028 0.0025437966 
0.98531526 0.17071949 0.0029550188 
0.9857219 0.16836177 0.0025918472 
0.98645425 0.16401379 0.002751799 
0 0 0 
0 0 0 
0 0 0 
0 0 0 
0 0 0 
0 0 0 
0 0 0 
0 0 0 
0 0 0 
0 0 0 
0.98767424 0.15649948 0.0027521285 
0.98662287 0.16299911 0.002591152 
0.9856407 0.16883038 0.0029529738 
0.98512423 0.17182498 0.0025412978 
0.98454094 0.175131 0.0028766945 
0.9845116 0.17529947 0.0026358913 
0 0 0 
0 0 0 
0 0 0 
0 0 0 
0 0 0 
0 0 0 
0 0 0 
0 0 0 
0 0 0 
0 0 0 
0.9892497 0.14621216 0.0026647395 
0.98750573 0.15755768 0.0028475863 
0.9859094 0.16726027 0.0026103414 
0.9843876 0.17599085 0.0028972076 
0.983105 0.18302387 0.002620729 
0.9825226 0.18612438 0.0026846402 
0 0 0 
0 0 0 
0 0 0 
0 0 0 
0 0 0 
0 0 0 
0 0 0 
0 0 0 
0 0 0 
0 0 0 
0 0 0 
0.98783714 0.1554681 0.0027277214 
0.98576844 0.16808514 0.002822161 
0.98338294 0.18152295 0.0027071205 
0.9811764 0.19309415 0.0027493278 
0 0 0 
0 0 0 
0 0 0 
0 0 0 
0 0 0 
0 0 0 
0 0 0 
0 0 0 
0 0 0 
0 0 0 
0 0 0 
0 0 0 
0 0 0 
0 0 0 
0 0 0 
0 0 0 
0 0 0 
0 0 0 
0 0 0 
0 0 0 
0 0 0 
0 0 0 
0 0 0 
0 0 0 
0 0 0 
0 0 0 
0 0 0 
0 0 0 
0 0 0 
0 0 0 
0 0 0 
0 0 0 
0 0 0 
0 0 0 
0 0 0 
0 0 0 
0 0 0 
0 0 0 
0 0 0 
0 0 0 
# End: Data Text
# End: Segment
