# OOMMF: rectangular mesh v1.0
# Segment count: 1
# Begin: Segment
# Begin: Header
# Desc: Time (s) :  1.0045145690104117e-08
# Title: m
# meshtype: rectangular
# meshunit: m
# xbase: 2.5e-09
# ybase: 2.5e-09
# zbase: 2.25e-08
# xstepsize: 5e-09
# ystepsize: 5e-09
# zstepsize: 4.5e-08
# xmin: 0
# ymin: 0
# zmin: 0
# xmax: 8e-08
# ymax: 1.6e-07
# zmax: 4.5e-08
# xnodes: 16
# ynodes: 32
# znodes: 1
# ValueRangeMinMag: 1e-08
# ValueRangeMaxMag: 1
# valueunit: 
# valuemultiplier: 1
# End: Header
# Begin: Data Text
0 0 0 
0 0 0 
0 0 0 
0 0 0 
0 0 0 
0 0 0 
0 0 0 
0 0 0 
0 0 0 
0 0 0 
0 0 0 
0 0 0 
0 0 0 
0 0 0 
0 0 0 
0 0 0 
0 0 0 
0 0 0 
0 0 0 
0 0 0 
0 0 0 
0 0 0 
0 0 0 
0 0 0 
0 0 0 
0 0 0 
0 0 0 
0 0 0 
0 0 0 
0 0 0 
0 0 0 
0 0 0 
0 0 0 
0 0 0 
0 0 0 
0 0 0 
0 0 0 
0 0 0 
0 0 0 
0 0 0 
0 0 0 
0 0 0 
0 0 0 
0 0 0 
0 0 0 
0 0 0 
0 0 0 
0 0 0 
0 0 0 
0 0 0 
0 0 0 
0 0 0 
0 0 0 
0 0 0 
0 0 0 
0 0 0 
0 0 0 
0 0 0 
0 0 0 
0 0 0 
0 0 0 
0 0 0 
0 0 0 
0 0 0 
0 0 0 
0 0 0 
0 0 0 
0 0 0 
0 0 0 
0 0 0 
0 0 0 
0 0 0 
0 0 0 
0 0 0 
0 0 0 
0 0 0 
0 0 0 
0 0 0 
0 0 0 
0 0 0 
0 0 0 
0 0 0 
0 0 0 
0 0 0 
0 0 0 
0 0 0 
0 0 0 
0 0 0 
0 0 0 
0 0 0 
0 0 0 
0 0 0 
0 0 0 
0 0 0 
0 0 0 
0 0 0 
0 0 0 
0 0 0 
0 0 0 
0 0 0 
0 0 0 
0 0 0 
0.98530275 0.16167481 0.05513449 
0.98676723 0.15221004 0.05588087 
0.9882815 0.14198558 0.056033824 
0 0 0 
0 0 0 
0 0 0 
0 0 0 
0 0 0 
0 0 0 
0 0 0 
0 0 0 
0 0 0 
0 0 0 
0 0 0 
0 0 0 
0.98529226 0.16234443 0.053323362 
0.98622876 0.15614556 0.05451119 
0.9872173 0.14944915 0.055380072 
0.9884043 0.1411941 0.055868726 
0.9898933 0.13031836 0.055931743 
0 0 0 
0 0 0 
0 0 0 
0 0 0 
0 0 0 
0 0 0 
0 0 0 
0 0 0 
0 0 0 
0 0 0 
0.9868566 0.15370308 0.049895633 
0.98634166 0.15609345 0.05258443 
0.98669755 0.1533103 0.054072786 
0.9872448 0.14938344 0.05506654 
0.9879235 0.14455302 0.055783127 
0.988703 0.13892001 0.056282777 
0 0 0 
0 0 0 
0 0 0 
0 0 0 
0 0 0 
0 0 0 
0 0 0 
0 0 0 
0 0 0 
0 0 0 
0.9876349 0.14855702 0.0500821 
0.9869539 0.1520675 0.05289069 
0.9868729 0.15211464 0.054249145 
0.9870662 0.15051906 0.055175852 
0.9873432 0.1484252 0.055887856 
0.987427 0.14767969 0.056380842 
0 0 0 
0 0 0 
0 0 0 
0 0 0 
0 0 0 
0 0 0 
0 0 0 
0 0 0 
0 0 0 
0 0 0 
0 0 0 
0.987663 0.146845 0.054392997 
0.98704517 0.15073189 0.054970462 
0.98683363 0.15186398 0.055649374 
0.98680884 0.1518378 0.05615856 
0.98658884 0.15324527 0.056197938 
0 0 0 
0 0 0 
0 0 0 
0 0 0 
0 0 0 
0 0 0 
0 0 0 
0 0 0 
0 0 0 
0 0 0 
0 0 0 
0.9886839 0.13969941 0.054665294 
0.98752487 0.14734906 0.055522878 
0.9865925 0.15323941 0.056151036 
0.98579264 0.15815076 0.056579243 
0 0 0 
0 0 0 
0 0 0 
0 0 0 
0 0 0 
0 0 0 
0 0 0 
0 0 0 
0 0 0 
0 0 0 
0 0 0 
0 0 0 
0 0 0 
0 0 0 
0 0 0 
0 0 0 
0 0 0 
0 0 0 
0 0 0 
0 0 0 
0 0 0 
0 0 0 
0 0 0 
0 0 0 
0 0 0 
0 0 0 
0 0 0 
0 0 0 
0 0 0 
0 0 0 
0 0 0 
0 0 0 
0 0 0 
0 0 0 
0 0 0 
0 0 0 
0 0 0 
0 0 0 
0 0 0 
0 0 0 
0 0 0 
0 0 0 
0 0 0 
0 0 0 
0 0 0 
0.9820595 0.18632753 0.029005954 
0.9830385 0.18107717 0.029094875 
0.98409575 0.17523327 0.029135328 
0 0 0 
0 0 0 
0 0 0 
0 0 0 
0 0 0 
0 0 0 
0 0 0 
0 0 0 
0 0 0 
0 0 0 
0 0 0 
0 0 0 
0.98393667 0.17633247 0.027848717 
0.9839234 0.17632025 0.028391462 
0.9842324 0.17454332 0.028655762 
0.9849996 0.1701652 0.028631402 
0.9865484 0.16100128 0.028299524 
0 0 0 
0 0 0 
0 0 0 
0 0 0 
0 0 0 
0 0 0 
0 0 0 
0 0 0 
0 0 0 
0 0 0 
0.98669875 0.16046041 0.026039636 
0.9856527 0.16657622 0.027225884 
0.985111 0.16964264 0.027888883 
0.98487365 0.17098583 0.028068958 
0.9849064 0.17077863 0.028180758 
0.98553544 0.16713801 0.028013038 
0 0 0 
0 0 0 
0 0 0 
0 0 0 
0 0 0 
0 0 0 
0 0 0 
0 0 0 
0 0 0 
0 0 0 
0.98796517 0.15247048 0.026030004 
0.9867863 0.15975161 0.027059278 
0.98587716 0.16519552 0.027511224 
0.9851011 0.16971184 0.027818756 
0.98473 0.17187387 0.02768281 
0.98481214 0.17147161 0.027248882 
0.986422 0.1622475 0.02544675 
0 0 0 
0 0 0 
0 0 0 
0 0 0 
0 0 0 
0 0 0 
0 0 0 
0 0 0 
0 0 0 
0.9892508 0.14389367 0.02603021 
0.9878523 0.1530232 0.027052484 
0.98634684 0.16235511 0.027580893 
0.98507535 0.16987479 0.027732521 
0.9840854 0.17552067 0.027722998 
0.9830993 0.18100536 0.027438406 
0 0 0 
0 0 0 
0 0 0 
0 0 0 
0 0 0 
0 0 0 
0 0 0 
0 0 0 
0 0 0 
0 0 0 
0 0 0 
0.98855317 0.14835241 0.027465407 
0.9868021 0.15953256 0.02776925 
0.98448664 0.17319934 0.028074976 
0.9830315 0.18132566 0.027749581 
0.9812135 0.19099462 0.027226128 
0 0 0 
0 0 0 
0 0 0 
0 0 0 
0 0 0 
0 0 0 
0 0 0 
0 0 0 
0 0 0 
0 0 0 
0 0 0 
0 0 0 
0 0 0 
0.98252934 0.18387744 0.028726913 
0 0 0 
0 0 0 
0 0 0 
0 0 0 
0 0 0 
0 0 0 
0 0 0 
0 0 0 
0 0 0 
0 0 0 
0 0 0 
0 0 0 
0 0 0 
0 0 0 
0 0 0 
0 0 0 
0 0 0 
0 0 0 
0 0 0 
0 0 0 
0 0 0 
0 0 0 
0 0 0 
0 0 0 
0 0 0 
0 0 0 
0 0 0 
0 0 0 
0 0 0 
0 0 0 
0 0 0 
0 0 0 
0 0 0 
0 0 0 
0 0 0 
0 0 0 
0 0 0 
0 0 0 
0 0 0 
0 0 0 
0 0 0 
0 0 0 
0 0 0 
0 0 0 
0 0 0 
0 0 0 
0 0 0 
0 0 0 
0 0 0 
0 0 0 
0 0 0 
0 0 0 
0 0 0 
0 0 0 
0 0 0 
0 0 0 
0 0 0 
0 0 0 
0 0 0 
0 0 0 
0.98358864 0.17869313 -0.024946472 
0.9851324 0.16988604 -0.025551159 
0.98677677 0.16006835 -0.025490236 
0.98825896 0.15064143 -0.025524134 
0 0 0 
0 0 0 
0 0 0 
0 0 0 
0 0 0 
0 0 0 
0 0 0 
0 0 0 
0 0 0 
0 0 0 
0 0 0 
0.9851775 0.16985284 -0.023984423 
0.9853586 0.16864339 -0.025061484 
0.98608214 0.16438915 -0.024863726 
0.98679954 0.15990554 -0.025629837 
0.98784316 0.15344614 -0.024904642 
0.9891416 0.14490381 -0.024533544 
0 0 0 
0 0 0 
0 0 0 
0 0 0 
0 0 0 
0 0 0 
0 0 0 
0 0 0 
0 0 0 
0 0 0 
0.9869591 0.15911481 -0.024377411 
0.9867349 0.1604909 -0.024432022 
0.9866393 0.16091765 -0.025465477 
0.9866063 0.1612578 -0.024578093 
0.98688716 0.15943049 -0.025212357 
0.98761505 0.15499905 -0.024326611 
0 0 0 
0 0 0 
0 0 0 
0 0 0 
0 0 0 
0 0 0 
0 0 0 
0 0 0 
0 0 0 
0 0 0 
0.9887636 0.147513 -0.024218729 
0.98773634 0.15410039 -0.0251024 
0.9869105 0.15940034 -0.024477672 
0.9863074 0.16295178 -0.025385946 
0.98584086 0.16590242 -0.024376146 
0.98573345 0.16654414 -0.024344595 
0 0 0 
0 0 0 
0 0 0 
0 0 0 
0 0 0 
0 0 0 
0 0 0 
0 0 0 
0 0 0 
0 0 0 
0.9902389 0.13724369 -0.024314206 
0.9886481 0.14821638 -0.024637287 
0.9870777 0.1582222 -0.02536391 
0.9857128 0.1666263 -0.024617217 
0.98440725 0.1741398 -0.024854204 
0.98385805 0.17735516 -0.023843708 
0 0 0 
0 0 0 
0 0 0 
0 0 0 
0 0 0 
0 0 0 
0 0 0 
0 0 0 
0 0 0 
0 0 0 
0 0 0 
0.9889609 0.14603046 -0.025127431 
0.9870238 0.15860075 -0.02509899 
0.9847252 0.17228481 -0.025184765 
0.98263913 0.18388806 -0.024609296 
0 0 0 
0 0 0 
0 0 0 
0 0 0 
0 0 0 
0 0 0 
0 0 0 
0 0 0 
0 0 0 
0 0 0 
0 0 0 
0 0 0 
0 0 0 
0 0 0 
0 0 0 
0 0 0 
0 0 0 
0 0 0 
0 0 0 
0 0 0 
0 0 0 
0 0 0 
0 0 0 
0 0 0 
0 0 0 
0 0 0 
0 0 0 
0 0 0 
0 0 0 
0 0 0 
0 0 0 
0 0 0 
0 0 0 
0 0 0 
0 0 0 
0 0 0 
0 0 0 
0 0 0 
0 0 0 
0 0 0 
# End: Data Text
# End: Segment
