# OOMMF: rectangular mesh v1.0
# Segment count: 1
# Begin: Segment
# Begin: Header
# Desc: Time (s) :  4.030618196619336e-09
# Title: m
# meshtype: rectangular
# meshunit: m
# xbase: 2.5e-09
# ybase: 2.5e-09
# zbase: 2.25e-08
# xstepsize: 5e-09
# ystepsize: 5e-09
# zstepsize: 4.5e-08
# xmin: 0
# ymin: 0
# zmin: 0
# xmax: 8e-08
# ymax: 1.6e-07
# zmax: 4.5e-08
# xnodes: 16
# ynodes: 32
# znodes: 1
# ValueRangeMinMag: 1e-08
# ValueRangeMaxMag: 1
# valueunit: 
# valuemultiplier: 1
# End: Header
# Begin: Data Text
0 0 0 
0 0 0 
0 0 0 
0 0 0 
0 0 0 
0 0 0 
0 0 0 
0 0 0 
0 0 0 
0 0 0 
0 0 0 
0 0 0 
0 0 0 
0 0 0 
0 0 0 
0 0 0 
0 0 0 
0 0 0 
0 0 0 
0 0 0 
0 0 0 
0 0 0 
0 0 0 
0 0 0 
0 0 0 
0 0 0 
0 0 0 
0 0 0 
0 0 0 
0 0 0 
0 0 0 
0 0 0 
0 0 0 
0 0 0 
0 0 0 
0 0 0 
0 0 0 
0 0 0 
0 0 0 
0 0 0 
0 0 0 
0 0 0 
0 0 0 
0 0 0 
0 0 0 
0 0 0 
0 0 0 
0 0 0 
0 0 0 
0 0 0 
0 0 0 
0 0 0 
0 0 0 
0 0 0 
0 0 0 
0 0 0 
0 0 0 
0 0 0 
0 0 0 
0 0 0 
0 0 0 
0 0 0 
0 0 0 
0 0 0 
0 0 0 
0 0 0 
0 0 0 
0 0 0 
0 0 0 
0 0 0 
0 0 0 
0 0 0 
0 0 0 
0 0 0 
0 0 0 
0 0 0 
0 0 0 
0 0 0 
0 0 0 
0 0 0 
0 0 0 
0 0 0 
0 0 0 
0 0 0 
0 0 0 
0 0 0 
0 0 0 
0 0 0 
0 0 0 
0 0 0 
0 0 0 
0 0 0 
0 0 0 
0 0 0 
0 0 0 
0 0 0 
0 0 0 
0 0 0 
0 0 0 
0 0 0 
0 0 0 
0 0 0 
0.9835837 0.18044242 0.0019424472 
0.98522246 0.1712691 0.0019262868 
0.9869092 0.16126566 0.001904517 
0 0 0 
0 0 0 
0 0 0 
0 0 0 
0 0 0 
0 0 0 
0 0 0 
0 0 0 
0 0 0 
0 0 0 
0 0 0 
0 0 0 
0.9836789 0.17992236 0.0019144382 
0.9846855 0.17433 0.0019085491 
0.98577535 0.1680579 0.0019268064 
0.98711264 0.16001615 0.0018776091 
0.9888128 0.14915045 0.0018614974 
0 0 0 
0 0 0 
0 0 0 
0 0 0 
0 0 0 
0 0 0 
0 0 0 
0 0 0 
0 0 0 
0 0 0 
0.9854369 0.17003211 0.0017947673 
0.9848467 0.17341766 0.0018625628 
0.9852182 0.1712932 0.0019194897 
0.9858246 0.16776896 0.0018805825 
0.9865895 0.16321017 0.001910828 
0.9874836 0.15771101 0.0018827646 
0 0 0 
0 0 0 
0 0 0 
0 0 0 
0 0 0 
0 0 0 
0 0 0 
0 0 0 
0 0 0 
0 0 0 
0.98629653 0.16497272 0.0017841298 
0.9855175 0.16956335 0.0018773635 
0.98541844 0.17013817 0.0018748591 
0.9856309 0.1689026 0.0019294262 
0.9859536 0.16700874 0.0018962047 
0.98606086 0.16637433 0.0019223522 
0 0 0 
0 0 0 
0 0 0 
0 0 0 
0 0 0 
0 0 0 
0 0 0 
0 0 0 
0 0 0 
0 0 0 
0 0 0 
0.9862938 0.16498816 0.0018776344 
0.98560864 0.16903266 0.0019177697 
0.9853839 0.17033765 0.0019079559 
0.98536795 0.17042984 0.0019466942 
0.9851465 0.1717049 0.0019249992 
0 0 0 
0 0 0 
0 0 0 
0 0 0 
0 0 0 
0 0 0 
0 0 0 
0 0 0 
0 0 0 
0 0 0 
0 0 0 
0.98739237 0.15828091 0.0018721005 
0.98613405 0.16593988 0.0019046234 
0.98512065 0.17185302 0.0019460648 
0.98423135 0.17687517 0.001958083 
0 0 0 
0 0 0 
0 0 0 
0 0 0 
0 0 0 
0 0 0 
0 0 0 
0 0 0 
0 0 0 
0 0 0 
0 0 0 
0 0 0 
0 0 0 
0 0 0 
0 0 0 
0 0 0 
0 0 0 
0 0 0 
0 0 0 
0 0 0 
0 0 0 
0 0 0 
0 0 0 
0 0 0 
0 0 0 
0 0 0 
0 0 0 
0 0 0 
0 0 0 
0 0 0 
0 0 0 
0 0 0 
0 0 0 
0 0 0 
0 0 0 
0 0 0 
0 0 0 
0 0 0 
0 0 0 
0 0 0 
0 0 0 
0 0 0 
0 0 0 
0 0 0 
0 0 0 
0.9822841 0.18738684 0.0020021126 
0.98326063 0.18219364 0.0020389152 
0.98434395 0.17624755 0.0019896093 
0 0 0 
0 0 0 
0 0 0 
0 0 0 
0 0 0 
0 0 0 
0 0 0 
0 0 0 
0 0 0 
0 0 0 
0 0 0 
0 0 0 
0.9841745 0.17719233 0.0018850947 
0.98413855 0.17739028 0.0020203602 
0.9845014 0.17536667 0.0018957489 
0.9852387 0.17117468 0.0020211635 
0.9868224 0.16179563 0.0019114354 
0 0 0 
0 0 0 
0 0 0 
0 0 0 
0 0 0 
0 0 0 
0 0 0 
0 0 0 
0 0 0 
0 0 0 
0.986922 0.1611895 0.0017138497 
0.98586816 0.16751276 0.0018992523 
0.985387 0.1703209 0.0017925322 
0.9850887 0.17203553 0.002040488 
0.98519385 0.17143477 0.00184824 
0.9857918 0.16796036 0.0019631414 
0 0 0 
0 0 0 
0 0 0 
0 0 0 
0 0 0 
0 0 0 
0 0 0 
0 0 0 
0 0 0 
0 0 0 
0.98818594 0.15324974 0.0017297597 
0.98705137 0.16039583 0.0017177368 
0.9860927 0.16618527 0.0019702057 
0.9853957 0.1702705 0.0017782052 
0.9849583 0.17278104 0.0020201907 
0.9850844 0.17206201 0.0018520594 
0.9866496 0.16284797 0.0017851595 
0 0 0 
0 0 0 
0 0 0 
0 0 0 
0 0 0 
0 0 0 
0 0 0 
0 0 0 
0 0 0 
0.9894905 0.14458823 0.0016667026 
0.98808914 0.15387167 0.001828857 
0.9866325 0.16295175 0.001754594 
0.985307 0.17078152 0.0020032292 
0.98437333 0.17608424 0.0018652653 
0.98334914 0.18171601 0.001981262 
0 0 0 
0 0 0 
0 0 0 
0 0 0 
0 0 0 
0 0 0 
0 0 0 
0 0 0 
0 0 0 
0 0 0 
0 0 0 
0.98882496 0.14907077 0.0017717785 
0.98706084 0.16033559 0.0018877258 
0.9847726 0.17383757 0.0018834006 
0.98328567 0.18205868 0.001993183 
0.9814683 0.19161454 0.0019494547 
0 0 0 
0 0 0 
0 0 0 
0 0 0 
0 0 0 
0 0 0 
0 0 0 
0 0 0 
0 0 0 
0 0 0 
0 0 0 
0 0 0 
0 0 0 
0.9828003 0.1846607 0.0020055 
0 0 0 
0 0 0 
0 0 0 
0 0 0 
0 0 0 
0 0 0 
0 0 0 
0 0 0 
0 0 0 
0 0 0 
0 0 0 
0 0 0 
0 0 0 
0 0 0 
0 0 0 
0 0 0 
0 0 0 
0 0 0 
0 0 0 
0 0 0 
0 0 0 
0 0 0 
0 0 0 
0 0 0 
0 0 0 
0 0 0 
0 0 0 
0 0 0 
0 0 0 
0 0 0 
0 0 0 
0 0 0 
0 0 0 
0 0 0 
0 0 0 
0 0 0 
0 0 0 
0 0 0 
0 0 0 
0 0 0 
0 0 0 
0 0 0 
0 0 0 
0 0 0 
0 0 0 
0 0 0 
0 0 0 
0 0 0 
0 0 0 
0 0 0 
0 0 0 
0 0 0 
0 0 0 
0 0 0 
0 0 0 
0 0 0 
0 0 0 
0 0 0 
0 0 0 
0 0 0 
0.98217386 0.18795347 0.0028236804 
0.9837481 0.17953274 0.0027996306 
0.9855229 0.16951773 0.002895581 
0.9870493 0.16039276 0.002815349 
0 0 0 
0 0 0 
0 0 0 
0 0 0 
0 0 0 
0 0 0 
0 0 0 
0 0 0 
0 0 0 
0 0 0 
0 0 0 
0.98391724 0.1786039 0.0027505902 
0.98400766 0.1781054 0.0027160451 
0.98487395 0.17324714 0.0029466117 
0.9854864 0.16973282 0.0027173457 
0.9867079 0.1624782 0.0029044459 
0.98804885 0.15411699 0.0027409962 
0 0 0 
0 0 0 
0 0 0 
0 0 0 
0 0 0 
0 0 0 
0 0 0 
0 0 0 
0 0 0 
0 0 0 
0.9857553 0.16816401 0.0027157338 
0.9855861 0.16914938 0.0029203726 
0.98530674 0.17077404 0.0026537396 
0.98546207 0.16986986 0.0029862563 
0.9856023 0.16905905 0.0026899003 
0.98648304 0.16383906 0.0028101583 
0 0 0 
0 0 0 
0 0 0 
0 0 0 
0 0 0 
0 0 0 
0 0 0 
0 0 0 
0 0 0 
0 0 0 
0.9877019 0.1563235 0.002809753 
0.9865069 0.16369763 0.0026885387 
0.9857861 0.16797917 0.0029838218 
0.9849571 0.17277877 0.002650414 
0.9846466 0.17453524 0.0029173694 
0.9844626 0.17557393 0.0027129622 
0 0 0 
0 0 0 
0 0 0 
0 0 0 
0 0 0 
0 0 0 
0 0 0 
0 0 0 
0 0 0 
0 0 0 
0.9892236 0.14638746 0.002737546 
0.9875689 0.15716003 0.0028979373 
0.9857901 0.16796008 0.002708987 
0.9844938 0.17539507 0.0029388298 
0.9830118 0.18352294 0.0027088504 
0.98253673 0.18604882 0.0027453979 
0 0 0 
0 0 0 
0 0 0 
0 0 0 
0 0 0 
0 0 0 
0 0 0 
0 0 0 
0 0 0 
0 0 0 
0 0 0 
0.9878088 0.1556465 0.0028041657 
0.9857976 0.1679135 0.002883434 
0.9833317 0.1817997 0.002787175 
0.9811906 0.19302076 0.0028127395 
0 0 0 
0 0 0 
0 0 0 
0 0 0 
0 0 0 
0 0 0 
0 0 0 
0 0 0 
0 0 0 
0 0 0 
0 0 0 
0 0 0 
0 0 0 
0 0 0 
0 0 0 
0 0 0 
0 0 0 
0 0 0 
0 0 0 
0 0 0 
0 0 0 
0 0 0 
0 0 0 
0 0 0 
0 0 0 
0 0 0 
0 0 0 
0 0 0 
0 0 0 
0 0 0 
0 0 0 
0 0 0 
0 0 0 
0 0 0 
0 0 0 
0 0 0 
0 0 0 
0 0 0 
0 0 0 
0 0 0 
# End: Data Text
# End: Segment
