# OOMMF: rectangular mesh v1.0
# Segment count: 1
# Begin: Segment
# Begin: Header
# Desc: Time (s) :  6.5895085107808e-09
# Title: m
# meshtype: rectangular
# meshunit: m
# xbase: 2.5e-09
# ybase: 2.5e-09
# zbase: 2.25e-08
# xstepsize: 5e-09
# ystepsize: 5e-09
# zstepsize: 4.5e-08
# xmin: 0
# ymin: 0
# zmin: 0
# xmax: 8e-08
# ymax: 1.6e-07
# zmax: 4.5e-08
# xnodes: 16
# ynodes: 32
# znodes: 1
# ValueRangeMinMag: 1e-08
# ValueRangeMaxMag: 1
# valueunit: 
# valuemultiplier: 1
# End: Header
# Begin: Data Text
0 0 0 
0 0 0 
0 0 0 
0 0 0 
0 0 0 
0 0 0 
0 0 0 
0 0 0 
0 0 0 
0 0 0 
0 0 0 
0 0 0 
0 0 0 
0 0 0 
0 0 0 
0 0 0 
0 0 0 
0 0 0 
0 0 0 
0 0 0 
0 0 0 
0 0 0 
0 0 0 
0 0 0 
0 0 0 
0 0 0 
0 0 0 
0 0 0 
0 0 0 
0 0 0 
0 0 0 
0 0 0 
0 0 0 
0 0 0 
0 0 0 
0 0 0 
0 0 0 
0 0 0 
0 0 0 
0 0 0 
0 0 0 
0 0 0 
0 0 0 
0 0 0 
0 0 0 
0 0 0 
0 0 0 
0 0 0 
0 0 0 
0 0 0 
0 0 0 
0 0 0 
0 0 0 
0 0 0 
0 0 0 
0 0 0 
0 0 0 
0 0 0 
0 0 0 
0 0 0 
0 0 0 
0 0 0 
0 0 0 
0 0 0 
0 0 0 
0 0 0 
0 0 0 
0 0 0 
0 0 0 
0 0 0 
0 0 0 
0 0 0 
0 0 0 
0 0 0 
0 0 0 
0 0 0 
0 0 0 
0 0 0 
0 0 0 
0 0 0 
0 0 0 
0 0 0 
0 0 0 
0 0 0 
0 0 0 
0 0 0 
0 0 0 
0 0 0 
0 0 0 
0 0 0 
0 0 0 
0 0 0 
0 0 0 
0 0 0 
0 0 0 
0 0 0 
0 0 0 
0 0 0 
0 0 0 
0 0 0 
0 0 0 
0 0 0 
0.9836012 0.18034892 0.0017363281 
0.9852389 0.17117627 0.0017255339 
0.98692536 0.16116893 0.0016915672 
0 0 0 
0 0 0 
0 0 0 
0 0 0 
0 0 0 
0 0 0 
0 0 0 
0 0 0 
0 0 0 
0 0 0 
0 0 0 
0 0 0 
0.98369503 0.17983629 0.0017213643 
0.9847009 0.1742446 0.0017287942 
0.985792 0.16796198 0.0017038512 
0.98712766 0.15992565 0.0016840609 
0.9888274 0.14905615 0.0016479508 
0 0 0 
0 0 0 
0 0 0 
0 0 0 
0 0 0 
0 0 0 
0 0 0 
0 0 0 
0 0 0 
0 0 0 
0.98545086 0.16995314 0.0016232784 
0.9848612 0.17333674 0.0016950483 
0.98523486 0.17119975 0.0017004967 
0.9858394 0.16768396 0.0017075703 
0.986606 0.1631129 0.0016820733 
0.9874987 0.15761851 0.0016796115 
0 0 0 
0 0 0 
0 0 0 
0 0 0 
0 0 0 
0 0 0 
0 0 0 
0 0 0 
0 0 0 
0 0 0 
0.9863099 0.1648944 0.0016187552 
0.9855331 0.16947491 0.001676507 
0.9854332 0.17005472 0.0017070846 
0.9856479 0.16880535 0.001698393 
0.985969 0.16691984 0.001710636 
0.98607737 0.16627866 0.0017034889 
0 0 0 
0 0 0 
0 0 0 
0 0 0 
0 0 0 
0 0 0 
0 0 0 
0 0 0 
0 0 0 
0 0 0 
0 0 0 
0.9863088 0.16490042 0.001691516 
0.9856253 0.16893782 0.0017000111 
0.98539954 0.17024942 0.0017243016 
0.9853852 0.17033279 0.0017226739 
0.985163 0.17161264 0.0017196585 
0 0 0 
0 0 0 
0 0 0 
0 0 0 
0 0 0 
0 0 0 
0 0 0 
0 0 0 
0 0 0 
0 0 0 
0 0 0 
0.9874076 0.15818793 0.0016712676 
0.98614985 0.16584814 0.0017082684 
0.98513776 0.17175736 0.001731675 
0.98424876 0.1767809 0.0017519965 
0 0 0 
0 0 0 
0 0 0 
0 0 0 
0 0 0 
0 0 0 
0 0 0 
0 0 0 
0 0 0 
0 0 0 
0 0 0 
0 0 0 
0 0 0 
0 0 0 
0 0 0 
0 0 0 
0 0 0 
0 0 0 
0 0 0 
0 0 0 
0 0 0 
0 0 0 
0 0 0 
0 0 0 
0 0 0 
0 0 0 
0 0 0 
0 0 0 
0 0 0 
0 0 0 
0 0 0 
0 0 0 
0 0 0 
0 0 0 
0 0 0 
0 0 0 
0 0 0 
0 0 0 
0 0 0 
0 0 0 
0 0 0 
0 0 0 
0 0 0 
0 0 0 
0 0 0 
0.9823029 0.18729053 0.0018166533 
0.98328215 0.18208025 0.0017668423 
0.98436177 0.17614967 0.001797867 
0 0 0 
0 0 0 
0 0 0 
0 0 0 
0 0 0 
0 0 0 
0 0 0 
0 0 0 
0 0 0 
0 0 0 
0 0 0 
0 0 0 
0.9841897 0.17710903 0.0017334312 
0.9841613 0.17726709 0.001677783 
0.9845135 0.17529899 0.001840152 
0.98526055 0.17105256 0.0016884524 
0.9868375 0.16170551 0.0017378243 
0 0 0 
0 0 0 
0 0 0 
0 0 0 
0 0 0 
0 0 0 
0 0 0 
0 0 0 
0 0 0 
0 0 0 
0.98693514 0.16111049 0.0015692891 
0.9858885 0.16739628 0.0015746532 
0.9853959 0.17026933 0.0018091645 
0.9851142 0.1718939 0.0015977066 
0.98520404 0.17137589 0.0018294022 
0.9858108 0.16785195 0.0016871227 
0 0 0 
0 0 0 
0 0 0 
0 0 0 
0 0 0 
0 0 0 
0 0 0 
0 0 0 
0 0 0 
0 0 0 
0.98820126 0.15315405 0.0015017606 
0.9870609 0.16033722 0.001687439 
0.9861167 0.16604689 0.001536578 
0.985403 0.17022826 0.001840413 
0.9849822 0.17264849 0.0016171376 
0.98509663 0.1719932 0.0017654608 
0.986664 0.16276254 0.0015951328 
0 0 0 
0 0 0 
0 0 0 
0 0 0 
0 0 0 
0 0 0 
0 0 0 
0 0 0 
0 0 0 
0.9895024 0.14450863 0.0015209839 
0.98810726 0.15375896 0.0015222607 
0.9866416 0.16289678 0.0017477351 
0.98533064 0.17064872 0.0016006846 
0.98438424 0.17602375 0.0018289068 
0.98336846 0.18161386 0.0017252387 
0 0 0 
0 0 0 
0 0 0 
0 0 0 
0 0 0 
0 0 0 
0 0 0 
0 0 0 
0 0 0 
0 0 0 
0 0 0 
0.988838 0.14898625 0.0016161454 
0.9870786 0.16022891 0.0016189506 
0.9847857 0.17376427 0.0017906138 
0.9833054 0.18195485 0.0017336602 
0.98148507 0.19153051 0.0017845569 
0 0 0 
0 0 0 
0 0 0 
0 0 0 
0 0 0 
0 0 0 
0 0 0 
0 0 0 
0 0 0 
0 0 0 
0 0 0 
0 0 0 
0 0 0 
0.9828203 0.18455689 0.0017817406 
0 0 0 
0 0 0 
0 0 0 
0 0 0 
0 0 0 
0 0 0 
0 0 0 
0 0 0 
0 0 0 
0 0 0 
0 0 0 
0 0 0 
0 0 0 
0 0 0 
0 0 0 
0 0 0 
0 0 0 
0 0 0 
0 0 0 
0 0 0 
0 0 0 
0 0 0 
0 0 0 
0 0 0 
0 0 0 
0 0 0 
0 0 0 
0 0 0 
0 0 0 
0 0 0 
0 0 0 
0 0 0 
0 0 0 
0 0 0 
0 0 0 
0 0 0 
0 0 0 
0 0 0 
0 0 0 
0 0 0 
0 0 0 
0 0 0 
0 0 0 
0 0 0 
0 0 0 
0 0 0 
0 0 0 
0 0 0 
0 0 0 
0 0 0 
0 0 0 
0 0 0 
0 0 0 
0 0 0 
0 0 0 
0 0 0 
0 0 0 
0 0 0 
0 0 0 
0 0 0 
0.9821761 0.18794496 0.0026091621 
0.9838102 0.17919563 0.0025280365 
0.9855095 0.16959889 0.002689378 
0.98708993 0.16014682 0.0025583515 
0 0 0 
0 0 0 
0 0 0 
0 0 0 
0 0 0 
0 0 0 
0 0 0 
0 0 0 
0 0 0 
0 0 0 
0 0 0 
0.98391795 0.17860311 0.002549133 
0.98410636 0.17756377 0.002419394 
0.98478967 0.17372845 0.0028094565 
0.9856128 0.16900253 0.002384761 
0.9866597 0.16277356 0.002737738 
0.9880865 0.15387948 0.0024966416 
0 0 0 
0 0 0 
0 0 0 
0 0 0 
0 0 0 
0 0 0 
0 0 0 
0 0 0 
0 0 0 
0 0 0 
0.98581207 0.16783492 0.0024605014 
0.985503 0.16963492 0.0027893332 
0.98547494 0.16980599 0.0022873478 
0.9853375 0.17059262 0.0028901806 
0.9857277 0.1683313 0.0023641072 
0.9864683 0.16393088 0.002619845 
0 0 0 
0 0 0 
0 0 0 
0 0 0 
0 0 0 
0 0 0 
0 0 0 
0 0 0 
0 0 0 
0 0 0 
0.9876877 0.15641637 0.0026209943 
0.98662835 0.16296959 0.0023637312 
0.98566264 0.16870354 0.002889666 
0.98512733 0.17181069 0.0022858412 
0.9845607 0.17502113 0.002787862 
0.9845216 0.17524593 0.0024582336 
0 0 0 
0 0 0 
0 0 0 
0 0 0 
0 0 0 
0 0 0 
0 0 0 
0 0 0 
0 0 0 
0 0 0 
0.9892591 0.14615084 0.0024971808 
0.98752177 0.15745896 0.0027361321 
0.9859151 0.16722998 0.0023809252 
0.98440766 0.17588028 0.002806926 
0.98311317 0.18298285 0.002415911 
0.9825369 0.18605027 0.0025464299 
0 0 0 
0 0 0 
0 0 0 
0 0 0 
0 0 0 
0 0 0 
0 0 0 
0 0 0 
0 0 0 
0 0 0 
0 0 0 
0.98784775 0.15540384 0.0025534912 
0.9857835 0.16799925 0.0026842207 
0.9833941 0.18146557 0.0025220793 
0.9811921 0.19301608 0.002604868 
0 0 0 
0 0 0 
0 0 0 
0 0 0 
0 0 0 
0 0 0 
0 0 0 
0 0 0 
0 0 0 
0 0 0 
0 0 0 
0 0 0 
0 0 0 
0 0 0 
0 0 0 
0 0 0 
0 0 0 
0 0 0 
0 0 0 
0 0 0 
0 0 0 
0 0 0 
0 0 0 
0 0 0 
0 0 0 
0 0 0 
0 0 0 
0 0 0 
0 0 0 
0 0 0 
0 0 0 
0 0 0 
0 0 0 
0 0 0 
0 0 0 
0 0 0 
0 0 0 
0 0 0 
0 0 0 
0 0 0 
# End: Data Text
# End: Segment
