# OOMMF: rectangular mesh v1.0
# Segment count: 1
# Begin: Segment
# Begin: Header
# Desc: Time (s) :  7.952666427845979e-10
# Title: m
# meshtype: rectangular
# meshunit: m
# xbase: 2.5e-09
# ybase: 2.5e-09
# zbase: 2.25e-08
# xstepsize: 5e-09
# ystepsize: 5e-09
# zstepsize: 4.5e-08
# xmin: 0
# ymin: 0
# zmin: 0
# xmax: 8e-08
# ymax: 1.6e-07
# zmax: 4.5e-08
# xnodes: 16
# ynodes: 32
# znodes: 1
# ValueRangeMinMag: 1e-08
# ValueRangeMaxMag: 1
# valueunit: 
# valuemultiplier: 1
# End: Header
# Begin: Data Text
0 0 0 
0 0 0 
0 0 0 
0 0 0 
0 0 0 
0 0 0 
0 0 0 
0 0 0 
0 0 0 
0 0 0 
0 0 0 
0 0 0 
0 0 0 
0 0 0 
0 0 0 
0 0 0 
0 0 0 
0 0 0 
0 0 0 
0 0 0 
0 0 0 
0 0 0 
0 0 0 
0 0 0 
0 0 0 
0 0 0 
0 0 0 
0 0 0 
0 0 0 
0 0 0 
0 0 0 
0 0 0 
0 0 0 
0 0 0 
0 0 0 
0 0 0 
0 0 0 
0 0 0 
0 0 0 
0 0 0 
0 0 0 
0 0 0 
0 0 0 
0 0 0 
0 0 0 
0 0 0 
0 0 0 
0 0 0 
0 0 0 
0 0 0 
0 0 0 
0 0 0 
0 0 0 
0 0 0 
0 0 0 
0 0 0 
0 0 0 
0 0 0 
0 0 0 
0 0 0 
0 0 0 
0 0 0 
0 0 0 
0 0 0 
0 0 0 
0 0 0 
0 0 0 
0 0 0 
0 0 0 
0 0 0 
0 0 0 
0 0 0 
0 0 0 
0 0 0 
0 0 0 
0 0 0 
0 0 0 
0 0 0 
0 0 0 
0 0 0 
0 0 0 
0 0 0 
0 0 0 
0 0 0 
0 0 0 
0 0 0 
0 0 0 
0 0 0 
0 0 0 
0 0 0 
0 0 0 
0 0 0 
0 0 0 
0 0 0 
0 0 0 
0 0 0 
0 0 0 
0 0 0 
0 0 0 
0 0 0 
0 0 0 
0 0 0 
0.99999505 0.0031431257 0.00010327747 
0.9999718 -0.0075140703 7.1080074e-05 
0.9998303 -0.018420924 0.0001076211 
0 0 0 
0 0 0 
0 0 0 
0 0 0 
0 0 0 
0 0 0 
0 0 0 
0 0 0 
0 0 0 
0 0 0 
0 0 0 
0 0 0 
0.9999328 0.011588531 0.00010421751 
0.9999983 0.0018764505 3.330734e-05 
0.99997646 -0.0068699294 0.00015507877 
0.9998776 -0.015649965 4.6477122e-05 
0.99967355 -0.025552215 0.000111061294 
0 0 0 
0 0 0 
0 0 0 
0 0 0 
0 0 0 
0 0 0 
0 0 0 
0 0 0 
0 0 0 
0 0 0 
0.99993485 0.011416246 8.9627145e-05 
0.99997663 0.0068401373 3.327029e-05 
1 0.00013604213 0.0001703491 
0.9999832 -0.005803644 -4.10105e-06 
0.99993265 -0.011609114 0.00016320005 
0.99984735 -0.017471766 7.058036e-05 
0 0 0 
0 0 0 
0 0 0 
0 0 0 
0 0 0 
0 0 0 
0 0 0 
0 0 0 
0 0 0 
0 0 0 
0.99998367 0.005724682 6.620674e-05 
0.99999905 0.0014089465 0.00013526408 
0.99999833 -0.0018465741 -7.139324e-07 
0.99998623 -0.005260812 0.00018300106 
0.9999677 -0.008046175 1.9684358e-05 
0.99995965 -0.008993092 0.000117831856 
0 0 0 
0 0 0 
0 0 0 
0 0 0 
0 0 0 
0 0 0 
0 0 0 
0 0 0 
0 0 0 
0 0 0 
0 0 0 
0.99996424 -0.008460321 5.849319e-05 
0.9999845 -0.0055810288 0.0001474861 
0.9999858 -0.005326339 2.077516e-05 
0.99998456 -0.00555639 0.00013908012 
0.9999972 -0.0023764146 7.6932294e-05 
0 0 0 
0 0 0 
0 0 0 
0 0 0 
0 0 0 
0 0 0 
0 0 0 
0 0 0 
0 0 0 
0 0 0 
0 0 0 
0.99982214 -0.018857379 9.721247e-05 
0.9999343 -0.011466707 6.71471e-05 
0.9999841 -0.005657654 0.000112344926 
0.9999988 -0.001536616 7.589448e-05 
0 0 0 
0 0 0 
0 0 0 
0 0 0 
0 0 0 
0 0 0 
0 0 0 
0 0 0 
0 0 0 
0 0 0 
0 0 0 
0 0 0 
0 0 0 
0 0 0 
0 0 0 
0 0 0 
0 0 0 
0 0 0 
0 0 0 
0 0 0 
0 0 0 
0 0 0 
0 0 0 
0 0 0 
0 0 0 
0 0 0 
0 0 0 
0 0 0 
0 0 0 
0 0 0 
0 0 0 
0 0 0 
0 0 0 
0 0 0 
0 0 0 
0 0 0 
0 0 0 
0 0 0 
0 0 0 
0 0 0 
0 0 0 
0 0 0 
0 0 0 
0 0 0 
0 0 0 
0.99999654 -0.0025998265 7.6802986e-05 
0.99996406 -0.0084777055 2.7966526e-05 
0.99989146 -0.014735684 7.800534e-05 
0 0 0 
0 0 0 
0 0 0 
0 0 0 
0 0 0 
0 0 0 
0 0 0 
0 0 0 
0 0 0 
0 0 0 
0 0 0 
0 0 0 
0.9999999 0.00047750882 7.9603575e-05 
0.9999906 -0.004350953 -2.576285e-05 
0.99997246 -0.0074174213 0.00014854231 
0.99992985 -0.0118490765 -1.539216e-05 
0.9998438 -0.017677605 7.678515e-05 
0 0 0 
0 0 0 
0 0 0 
0 0 0 
0 0 0 
0 0 0 
0 0 0 
0 0 0 
0 0 0 
0 0 0 
0.99999076 -0.0043073585 6.479275e-05 
0.9999838 -0.0057054954 -3.045785e-05 
0.9999792 -0.006448782 0.00017707568 
0.99997675 -0.0068333484 -9.172583e-05 
0.99997866 -0.0065446896 0.00016138579 
0.99996096 -0.00884024 7.3397023e-06 
0 0 0 
0 0 0 
0 0 0 
0 0 0 
0 0 0 
0 0 0 
0 0 0 
0 0 0 
0 0 0 
0 0 0 
0.9999199 -0.012664355 1.5106865e-05 
0.99993616 -0.011301121 0.00013783037 
0.99995774 -0.009199674 -9.531746e-05 
0.9999847 -0.005545171 0.00019841276 
0.99999636 -0.0027115766 -7.7508055e-05 
0.9999998 0.00061865285 0.0001069498 
0.99999684 0.0025357774 3.205915e-05 
0 0 0 
0 0 0 
0 0 0 
0 0 0 
0 0 0 
0 0 0 
0 0 0 
0 0 0 
0 0 0 
0.99977124 -0.021390447 6.2450345e-05 
0.99983084 -0.018393032 -2.6148753e-05 
0.99993336 -0.011548727 0.00015108366 
0.9999847 -0.005535045 -8.185839e-05 
0.9999987 0.0016134379 0.00013369019 
0.99995863 0.009094767 2.3867917e-06 
0 0 0 
0 0 0 
0 0 0 
0 0 0 
0 0 0 
0 0 0 
0 0 0 
0 0 0 
0 0 0 
0 0 0 
0 0 0 
0.99966186 -0.026005162 6.339578e-05 
0.99987525 -0.015797101 -4.146134e-06 
0.99998766 -0.004972284 9.7666954e-05 
0.99997675 0.0068271374 -1.6056968e-06 
0.99981683 0.01914128 5.2248884e-05 
0 0 0 
0 0 0 
0 0 0 
0 0 0 
0 0 0 
0 0 0 
0 0 0 
0 0 0 
0 0 0 
0 0 0 
0 0 0 
0 0 0 
0 0 0 
0.9999809 -0.006186482 1.9933039e-05 
0 0 0 
0 0 0 
0 0 0 
0 0 0 
0 0 0 
0 0 0 
0 0 0 
0 0 0 
0 0 0 
0 0 0 
0 0 0 
0 0 0 
0 0 0 
0 0 0 
0 0 0 
0 0 0 
0 0 0 
0 0 0 
0 0 0 
0 0 0 
0 0 0 
0 0 0 
0 0 0 
0 0 0 
0 0 0 
0 0 0 
0 0 0 
0 0 0 
0 0 0 
0 0 0 
0 0 0 
0 0 0 
0 0 0 
0 0 0 
0 0 0 
0 0 0 
0 0 0 
0 0 0 
0 0 0 
0 0 0 
0 0 0 
0 0 0 
0 0 0 
0 0 0 
0 0 0 
0 0 0 
0 0 0 
0 0 0 
0 0 0 
0 0 0 
0 0 0 
0 0 0 
0 0 0 
0 0 0 
0 0 0 
0 0 0 
0 0 0 
0 0 0 
0 0 0 
0 0 0 
0.9998695 0.01566173 0.003966929 
0.9999789 0.005093597 0.004034121 
0.9999749 -0.0058184727 0.0040590568 
0.9998665 -0.015834013 0.004043935 
0 0 0 
0 0 0 
0 0 0 
0 0 0 
0 0 0 
0 0 0 
0 0 0 
0 0 0 
0 0 0 
0 0 0 
0 0 0 
0.9998705 0.015625251 0.003855722 
0.9999476 0.009444787 0.0039646192 
0.99998623 0.0033873788 0.0040008244 
0.9999893 -0.0022920424 0.00403296 
0.9999627 -0.0076634367 0.004005917 
0.9999134 -0.012564318 0.003919247 
0 0 0 
0 0 0 
0 0 0 
0 0 0 
0 0 0 
0 0 0 
0 0 0 
0 0 0 
0 0 0 
0 0 0 
0.99998105 0.0047620186 0.0039048148 
0.9999877 0.002996646 0.003958457 
0.99999124 0.0012220852 0.0040009115 
0.99999034 0.0018742323 0.003985682 
0.99999195 0.0005418208 0.0039804266 
0.9999922 -0.0006512163 0.0039118924 
0 0 0 
0 0 0 
0 0 0 
0 0 0 
0 0 0 
0 0 0 
0 0 0 
0 0 0 
0 0 0 
0 0 0 
0.9999677 -0.0070265075 0.0039231917 
0.9999852 -0.0037002116 0.0039867815 
0.9999917 0.0009277193 0.003979023 
0.9999845 0.0038884026 0.003983707 
0.9999541 0.008741495 0.0039361175 
0.99991715 0.012275853 0.003875928 
0 0 0 
0 0 0 
0 0 0 
0 0 0 
0 0 0 
0 0 0 
0 0 0 
0 0 0 
0 0 0 
0 0 0 
0.99982816 -0.018121246 0.0039186417 
0.99993765 -0.010428287 0.0039894707 
0.99999076 -0.0015953652 0.0040068678 
0.9999625 0.0077027865 0.003965678 
0.9998545 0.016600627 0.003922184 
0.99970114 0.024148554 0.003816656 
0 0 0 
0 0 0 
0 0 0 
0 0 0 
0 0 0 
0 0 0 
0 0 0 
0 0 0 
0 0 0 
0 0 0 
0 0 0 
0.99985164 -0.01675052 0.0040094587 
0.9999849 -0.0037590822 0.0040166653 
0.9999349 0.010687439 0.003984322 
0.9997109 0.02372101 0.003914294 
0 0 0 
0 0 0 
0 0 0 
0 0 0 
0 0 0 
0 0 0 
0 0 0 
0 0 0 
0 0 0 
0 0 0 
0 0 0 
0 0 0 
0 0 0 
0 0 0 
0 0 0 
0 0 0 
0 0 0 
0 0 0 
0 0 0 
0 0 0 
0 0 0 
0 0 0 
0 0 0 
0 0 0 
0 0 0 
0 0 0 
0 0 0 
0 0 0 
0 0 0 
0 0 0 
0 0 0 
0 0 0 
0 0 0 
0 0 0 
0 0 0 
0 0 0 
0 0 0 
0 0 0 
0 0 0 
0 0 0 
# End: Data Text
# End: Segment
