# OOMMF: rectangular mesh v1.0
# Segment count: 1
# Begin: Segment
# Begin: Header
# Desc: Time (s) :  2.839676253214958e-09
# Title: m
# meshtype: rectangular
# meshunit: m
# xbase: 2.5e-09
# ybase: 2.5e-09
# zbase: 2.25e-08
# xstepsize: 5e-09
# ystepsize: 5e-09
# zstepsize: 4.5e-08
# xmin: 0
# ymin: 0
# zmin: 0
# xmax: 8e-08
# ymax: 1.6e-07
# zmax: 4.5e-08
# xnodes: 16
# ynodes: 32
# znodes: 1
# ValueRangeMinMag: 1e-08
# ValueRangeMaxMag: 1
# valueunit: 
# valuemultiplier: 1
# End: Header
# Begin: Data Text
0 0 0 
0 0 0 
0 0 0 
0 0 0 
0 0 0 
0 0 0 
0 0 0 
0 0 0 
0 0 0 
0 0 0 
0 0 0 
0 0 0 
0 0 0 
0 0 0 
0 0 0 
0 0 0 
0 0 0 
0 0 0 
0 0 0 
0 0 0 
0 0 0 
0 0 0 
0 0 0 
0 0 0 
0 0 0 
0 0 0 
0 0 0 
0 0 0 
0 0 0 
0 0 0 
0 0 0 
0 0 0 
0 0 0 
0 0 0 
0 0 0 
0 0 0 
0 0 0 
0 0 0 
0 0 0 
0 0 0 
0 0 0 
0 0 0 
0 0 0 
0 0 0 
0 0 0 
0 0 0 
0 0 0 
0 0 0 
0 0 0 
0 0 0 
0 0 0 
0 0 0 
0 0 0 
0 0 0 
0 0 0 
0 0 0 
0 0 0 
0 0 0 
0 0 0 
0 0 0 
0 0 0 
0 0 0 
0 0 0 
0 0 0 
0 0 0 
0 0 0 
0 0 0 
0 0 0 
0 0 0 
0 0 0 
0 0 0 
0 0 0 
0 0 0 
0 0 0 
0 0 0 
0 0 0 
0 0 0 
0 0 0 
0 0 0 
0 0 0 
0 0 0 
0 0 0 
0 0 0 
0 0 0 
0 0 0 
0 0 0 
0 0 0 
0 0 0 
0 0 0 
0 0 0 
0 0 0 
0 0 0 
0 0 0 
0 0 0 
0 0 0 
0 0 0 
0 0 0 
0 0 0 
0 0 0 
0 0 0 
0 0 0 
0 0 0 
0.9999948 0.0032134384 2.8304245e-05 
0.9999723 -0.0074536754 1.5238934e-05 
0.99983156 -0.018350206 3.216712e-05 
0 0 0 
0 0 0 
0 0 0 
0 0 0 
0 0 0 
0 0 0 
0 0 0 
0 0 0 
0 0 0 
0 0 0 
0 0 0 
0 0 0 
0.9999321 0.011656217 2.9434097e-05 
0.99999815 0.0019239193 -1.280124e-06 
0.999977 -0.0067856717 5.1034855e-05 
0.99987835 -0.01559881 6.145515e-06 
0.9996753 -0.025483312 3.5266563e-05 
0 0 0 
0 0 0 
0 0 0 
0 0 0 
0 0 0 
0 0 0 
0 0 0 
0 0 0 
0 0 0 
0 0 0 
0.99993414 0.011476596 2.4738963e-05 
0.9999764 0.0068857577 -6.7599905e-07 
1 0.00022442831 5.711265e-05 
0.9999834 -0.00576713 -1.7276776e-05 
0.9999336 -0.011523072 5.478151e-05 
0.9998484 -0.017413827 1.6135615e-05 
0 0 0 
0 0 0 
0 0 0 
0 0 0 
0 0 0 
0 0 0 
0 0 0 
0 0 0 
0 0 0 
0 0 0 
0.9999833 0.005778057 1.4448661e-05 
0.999999 0.0014859113 4.2565312e-05 
0.9999984 -0.0018092383 -1.6389602e-05 
0.9999867 -0.005167939 6.178284e-05 
0.99996805 -0.008001916 -7.8638395e-06 
0.9999603 -0.008920065 3.429453e-05 
0 0 0 
0 0 0 
0 0 0 
0 0 0 
0 0 0 
0 0 0 
0 0 0 
0 0 0 
0 0 0 
0 0 0 
0 0 0 
0.9999647 -0.008405077 9.226113e-06 
0.9999849 -0.00549841 4.650448e-05 
0.9999861 -0.005281059 -8.370234e-06 
0.99998504 -0.0054760096 4.1955624e-05 
0.9999973 -0.0023151557 1.5608664e-05 
0 0 0 
0 0 0 
0 0 0 
0 0 0 
0 0 0 
0 0 0 
0 0 0 
0 0 0 
0 0 0 
0 0 0 
0 0 0 
0.9998235 -0.018789558 2.6223212e-05 
0.9999349 -0.011407388 1.2046004e-05 
0.9999845 -0.0055844714 3.0266345e-05 
0.99999887 -0.0014737123 1.4008043e-05 
0 0 0 
0 0 0 
0 0 0 
0 0 0 
0 0 0 
0 0 0 
0 0 0 
0 0 0 
0 0 0 
0 0 0 
0 0 0 
0 0 0 
0 0 0 
0 0 0 
0 0 0 
0 0 0 
0 0 0 
0 0 0 
0 0 0 
0 0 0 
0 0 0 
0 0 0 
0 0 0 
0 0 0 
0 0 0 
0 0 0 
0 0 0 
0 0 0 
0 0 0 
0 0 0 
0 0 0 
0 0 0 
0 0 0 
0 0 0 
0 0 0 
0 0 0 
0 0 0 
0 0 0 
0 0 0 
0 0 0 
0 0 0 
0 0 0 
0 0 0 
0 0 0 
0 0 0 
0.99999684 -0.0025353518 -7.5960534e-06 
0.9999646 -0.008418579 1.941071e-05 
0.9998924 -0.014671009 -4.5581637e-06 
0 0 0 
0 0 0 
0 0 0 
0 0 0 
0 0 0 
0 0 0 
0 0 0 
0 0 0 
0 0 0 
0 0 0 
0 0 0 
0 0 0 
0.9999999 0.00053666177 -1.413902e-05 
0.99999076 -0.0043010553 4.2762582e-05 
0.99997306 -0.0073477253 -4.6546174e-05 
0.9999304 -0.011797988 4.0268304e-05 
0.99984485 -0.017617574 -6.8797317e-06 
0 0 0 
0 0 0 
0 0 0 
0 0 0 
0 0 0 
0 0 0 
0 0 0 
0 0 0 
0 0 0 
0 0 0 
0.999991 -0.004254861 -9.92e-06 
0.99998397 -0.00565955 4.1259365e-05 
0.9999797 -0.0063794185 -6.742712e-05 
0.999977 -0.0067918217 7.3388066e-05 
0.99997914 -0.006475398 -5.7615674e-05 
0.9999614 -0.008788888 2.3125216e-05 
0 0 0 
0 0 0 
0 0 0 
0 0 0 
0 0 0 
0 0 0 
0 0 0 
0 0 0 
0 0 0 
0 0 0 
0.9999205 -0.0126170525 1.5925665e-05 
0.9999369 -0.011239311 -4.983268e-05 
0.9999581 -0.009159488 7.1126575e-05 
0.99998504 -0.0054736114 -8.4530686e-05 
0.9999965 -0.0026696383 5.946627e-05 
0.9999998 0.000679468 -3.6176527e-05 
0.99999666 0.0025841917 1.8703645e-06 
0 0 0 
0 0 0 
0 0 0 
0 0 0 
0 0 0 
0 0 0 
0 0 0 
0 0 0 
0 0 0 
0.99977237 -0.021338915 -9.1745815e-06 
0.99983174 -0.018347424 3.4800676e-05 
0.99993414 -0.011483984 -6.330901e-05 
0.9999849 -0.005492711 5.5648856e-05 
0.9999987 0.0016781095 -5.754759e-05 
0.9999582 0.009144774 1.2177647e-05 
0 0 0 
0 0 0 
0 0 0 
0 0 0 
0 0 0 
0 0 0 
0 0 0 
0 0 0 
0 0 0 
0 0 0 
0 0 0 
0.9996633 -0.025949994 -1.5053682e-05 
0.9998761 -0.015747273 1.4607755e-05 
0.99998796 -0.004910246 -4.6038076e-05 
0.9999764 0.0068779737 8.188192e-06 
0.9998157 0.019196995 -1.7279517e-05 
0 0 0 
0 0 0 
0 0 0 
0 0 0 
0 0 0 
0 0 0 
0 0 0 
0 0 0 
0 0 0 
0 0 0 
0 0 0 
0 0 0 
0 0 0 
0.9999812 -0.0061276117 -1.5397796e-05 
0 0 0 
0 0 0 
0 0 0 
0 0 0 
0 0 0 
0 0 0 
0 0 0 
0 0 0 
0 0 0 
0 0 0 
0 0 0 
0 0 0 
0 0 0 
0 0 0 
0 0 0 
0 0 0 
0 0 0 
0 0 0 
0 0 0 
0 0 0 
0 0 0 
0 0 0 
0 0 0 
0 0 0 
0 0 0 
0 0 0 
0 0 0 
0 0 0 
0 0 0 
0 0 0 
0 0 0 
0 0 0 
0 0 0 
0 0 0 
0 0 0 
0 0 0 
0 0 0 
0 0 0 
0 0 0 
0 0 0 
0 0 0 
0 0 0 
0 0 0 
0 0 0 
0 0 0 
0 0 0 
0 0 0 
0 0 0 
0 0 0 
0 0 0 
0 0 0 
0 0 0 
0 0 0 
0 0 0 
0 0 0 
0 0 0 
0 0 0 
0 0 0 
0 0 0 
0 0 0 
0.9998701 0.015613704 0.0039985753 
0.99997824 0.0053388397 0.0038992588 
0.9999737 -0.0059495964 0.0041373954 
0.9998694 -0.01567282 0.0039573214 
0 0 0 
0 0 0 
0 0 0 
0 0 0 
0 0 0 
0 0 0 
0 0 0 
0 0 0 
0 0 0 
0 0 0 
0 0 0 
0.9998712 0.015573129 0.00388908 
0.9999444 0.0098757865 0.0037240798 
0.9999867 0.0028999466 0.0042807 
0.9999917 -0.0016940514 0.003698847 
0.9999594 -0.007984215 0.0041907015 
0.9999157 -0.012406776 0.0038347342 
0 0 0 
0 0 0 
0 0 0 
0 0 0 
0 0 0 
0 0 0 
0 0 0 
0 0 0 
0 0 0 
0 0 0 
0.9999804 0.0050031496 0.0037722168 
0.99998796 0.0025072142 0.0042401496 
0.9999917 0.0020338737 0.0035449516 
0.9999897 0.00117192 0.0043863095 
0.99999267 0.0011381552 0.0036476466 
0.9999918 -0.0007870026 0.0039915876 
0 0 0 
0 0 0 
0 0 0 
0 0 0 
0 0 0 
0 0 0 
0 0 0 
0 0 0 
0 0 0 
0 0 0 
0.9999664 -0.0071635763 0.0040046037 
0.9999885 -0.0031035575 0.0036520592 
0.99999034 0.00022401224 0.0043813726 
0.9999828 0.0047000768 0.003528634 
0.99995714 0.008252567 0.0042156074 
0.99991465 0.012516959 0.0037439414 
0 0 0 
0 0 0 
0 0 0 
0 0 0 
0 0 0 
0 0 0 
0 0 0 
0 0 0 
0 0 0 
0 0 0 
0.9998313 -0.01796461 0.0038342034 
0.99993354 -0.010751654 0.004176876 
0.9999927 -0.0009972812 0.0036719074 
0.999965 0.007213695 0.004245709 
0.9998482 0.01703114 0.0036827684 
0.9997023 0.024096275 0.0038494298 
0 0 0 
0 0 0 
0 0 0 
0 0 0 
0 0 0 
0 0 0 
0 0 0 
0 0 0 
0 0 0 
0 0 0 
0 0 0 
0.9998547 -0.01659079 0.00392312 
0.9999841 -0.0038925358 0.004096264 
0.9999329 0.010931736 0.0038498393 
0.99971205 0.023671709 0.0039459947 
0 0 0 
0 0 0 
0 0 0 
0 0 0 
0 0 0 
0 0 0 
0 0 0 
0 0 0 
0 0 0 
0 0 0 
0 0 0 
0 0 0 
0 0 0 
0 0 0 
0 0 0 
0 0 0 
0 0 0 
0 0 0 
0 0 0 
0 0 0 
0 0 0 
0 0 0 
0 0 0 
0 0 0 
0 0 0 
0 0 0 
0 0 0 
0 0 0 
0 0 0 
0 0 0 
0 0 0 
0 0 0 
0 0 0 
0 0 0 
0 0 0 
0 0 0 
0 0 0 
0 0 0 
0 0 0 
0 0 0 
# End: Data Text
# End: Segment
