# OOMMF: rectangular mesh v1.0
# Segment count: 1
# Begin: Segment
# Begin: Header
# Desc: Time (s) :  1.3192210787298418e-08
# Title: m
# meshtype: rectangular
# meshunit: m
# xbase: 2.5e-09
# ybase: 2.5e-09
# zbase: 2.25e-08
# xstepsize: 5e-09
# ystepsize: 5e-09
# zstepsize: 4.5e-08
# xmin: 0
# ymin: 0
# zmin: 0
# xmax: 8e-08
# ymax: 1.6e-07
# zmax: 4.5e-08
# xnodes: 16
# ynodes: 32
# znodes: 1
# ValueRangeMinMag: 1e-08
# ValueRangeMaxMag: 1
# valueunit: 
# valuemultiplier: 1
# End: Header
# Begin: Data Text
0 0 0 
0 0 0 
0 0 0 
0 0 0 
0 0 0 
0 0 0 
0 0 0 
0 0 0 
0 0 0 
0 0 0 
0 0 0 
0 0 0 
0 0 0 
0 0 0 
0 0 0 
0 0 0 
0 0 0 
0 0 0 
0 0 0 
0 0 0 
0 0 0 
0 0 0 
0 0 0 
0 0 0 
0 0 0 
0 0 0 
0 0 0 
0 0 0 
0 0 0 
0 0 0 
0 0 0 
0 0 0 
0 0 0 
0 0 0 
0 0 0 
0 0 0 
0 0 0 
0 0 0 
0 0 0 
0 0 0 
0 0 0 
0 0 0 
0 0 0 
0 0 0 
0 0 0 
0 0 0 
0 0 0 
0 0 0 
0 0 0 
0 0 0 
0 0 0 
0 0 0 
0 0 0 
0 0 0 
0 0 0 
0 0 0 
0 0 0 
0 0 0 
0 0 0 
0 0 0 
0 0 0 
0 0 0 
0 0 0 
0 0 0 
0 0 0 
0 0 0 
0 0 0 
0 0 0 
0 0 0 
0 0 0 
0 0 0 
0 0 0 
0 0 0 
0 0 0 
0 0 0 
0 0 0 
0 0 0 
0 0 0 
0 0 0 
0 0 0 
0 0 0 
0 0 0 
0 0 0 
0 0 0 
0 0 0 
0 0 0 
0 0 0 
0 0 0 
0 0 0 
0 0 0 
0 0 0 
0 0 0 
0 0 0 
0 0 0 
0 0 0 
0 0 0 
0 0 0 
0 0 0 
0 0 0 
0 0 0 
0 0 0 
0 0 0 
0.9994604 -0.02450418 0.021874499 
0.9991312 -0.035347156 0.022077657 
0.9986851 -0.046284005 0.022040818 
0 0 0 
0 0 0 
0 0 0 
0 0 0 
0 0 0 
0 0 0 
0 0 0 
0 0 0 
0 0 0 
0 0 0 
0 0 0 
0 0 0 
0.9996715 -0.014405801 0.0211983 
0.99945724 -0.024875458 0.021599038 
0.99918294 -0.033989243 0.021869125 
0.99883676 -0.04291877 0.021980815 
0.99837816 -0.052544944 0.021911679 
0 0 0 
0 0 0 
0 0 0 
0 0 0 
0 0 0 
0 0 0 
0 0 0 
0 0 0 
0 0 0 
0 0 0 
0.9997241 -0.012635245 0.019803694 
0.99960744 -0.018706867 0.02085629 
0.9994272 -0.026217343 0.021399857 
0.99922764 -0.032731824 0.021743491 
0.99900895 -0.038707733 0.02197383 
0.9987573 -0.04466301 0.022117171 
0 0 0 
0 0 0 
0 0 0 
0 0 0 
0 0 0 
0 0 0 
0 0 0 
0 0 0 
0 0 0 
0 0 0 
0.9996345 -0.018367726 0.01983457 
0.9994867 -0.024257164 0.020928828 
0.99936783 -0.028357828 0.021445617 
0.9992451 -0.032164864 0.02178574 
0.9991347 -0.03527128 0.022042213 
0.9990942 -0.036289353 0.022227237 
0 0 0 
0 0 0 
0 0 0 
0 0 0 
0 0 0 
0 0 0 
0 0 0 
0 0 0 
0 0 0 
0 0 0 
0 0 0 
0.9991573 -0.034998238 0.021444244 
0.99923885 -0.032419447 0.021698082 
0.99922884 -0.032542232 0.02197145 
0.9992132 -0.03288577 0.022171183 
0.9993164 -0.029555518 0.022206588 
0 0 0 
0 0 0 
0 0 0 
0 0 0 
0 0 0 
0 0 0 
0 0 0 
0 0 0 
0 0 0 
0 0 0 
0 0 0 
0.99871725 -0.045858867 0.021470696 
0.9990106 -0.03872314 0.02187126 
0.9992056 -0.033115212 0.02217063 
0.9993197 -0.029311776 0.022380032 
0 0 0 
0 0 0 
0 0 0 
0 0 0 
0 0 0 
0 0 0 
0 0 0 
0 0 0 
0 0 0 
0 0 0 
0 0 0 
0 0 0 
0 0 0 
0 0 0 
0 0 0 
0 0 0 
0 0 0 
0 0 0 
0 0 0 
0 0 0 
0 0 0 
0 0 0 
0 0 0 
0 0 0 
0 0 0 
0 0 0 
0 0 0 
0 0 0 
0 0 0 
0 0 0 
0 0 0 
0 0 0 
0 0 0 
0 0 0 
0 0 0 
0 0 0 
0 0 0 
0 0 0 
0 0 0 
0 0 0 
0 0 0 
0 0 0 
0 0 0 
0 0 0 
0 0 0 
0.9996537 -0.024333093 0.01002289 
0.99949664 -0.030095963 0.010043585 
0.9992832 -0.036502745 0.010040419 
0 0 0 
0 0 0 
0 0 0 
0 0 0 
0 0 0 
0 0 0 
0 0 0 
0 0 0 
0 0 0 
0 0 0 
0 0 0 
0 0 0 
0.9997664 -0.019371254 0.009585935 
0.99965084 -0.024546094 0.009785262 
0.9995483 -0.028387625 0.009875039 
0.9994311 -0.032253295 0.009872698 
0.99923587 -0.03785406 0.009736828 
0 0 0 
0 0 0 
0 0 0 
0 0 0 
0 0 0 
0 0 0 
0 0 0 
0 0 0 
0 0 0 
0 0 0 
0.99970996 -0.022372868 0.008909458 
0.99965596 -0.02451188 0.009341564 
0.99960154 -0.02654963 0.009580818 
0.999606 -0.026351064 0.009676576 
0.99959195 -0.02686144 0.00971965 
0.99954873 -0.02844217 0.009669668 
0 0 0 
0 0 0 
0 0 0 
0 0 0 
0 0 0 
0 0 0 
0 0 0 
0 0 0 
0 0 0 
0 0 0 
0.99949646 -0.03046274 0.0088828895 
0.9994969 -0.03033737 0.009253168 
0.9995628 -0.028018482 0.009448867 
0.9996272 -0.025571894 0.009573511 
0.9997164 -0.021808686 0.009567079 
0.9997822 -0.018621571 0.009427361 
0.99984854 -0.015012249 0.008807958 
0 0 0 
0 0 0 
0 0 0 
0 0 0 
0 0 0 
0 0 0 
0 0 0 
0 0 0 
0 0 0 
0.9991908 -0.03923362 0.008855163 
0.9992806 -0.03678254 0.009237379 
0.9994744 -0.031011567 0.009451425 
0.99965274 -0.024559904 0.009556111 
0.99979115 -0.018054992 0.009581762 
0.99990493 -0.009970885 0.009524135 
0 0 0 
0 0 0 
0 0 0 
0 0 0 
0 0 0 
0 0 0 
0 0 0 
0 0 0 
0 0 0 
0 0 0 
0 0 0 
0.99894506 -0.044957638 0.009357765 
0.999348 -0.034832746 0.009512579 
0.9996437 -0.02488323 0.00967151 
0.99987596 -0.012474331 0.009615934 
0.9999551 -0.00014061814 0.009481461 
0 0 0 
0 0 0 
0 0 0 
0 0 0 
0 0 0 
0 0 0 
0 0 0 
0 0 0 
0 0 0 
0 0 0 
0 0 0 
0 0 0 
0 0 0 
0.9995799 -0.027233288 0.00991652 
0 0 0 
0 0 0 
0 0 0 
0 0 0 
0 0 0 
0 0 0 
0 0 0 
0 0 0 
0 0 0 
0 0 0 
0 0 0 
0 0 0 
0 0 0 
0 0 0 
0 0 0 
0 0 0 
0 0 0 
0 0 0 
0 0 0 
0 0 0 
0 0 0 
0 0 0 
0 0 0 
0 0 0 
0 0 0 
0 0 0 
0 0 0 
0 0 0 
0 0 0 
0 0 0 
0 0 0 
0 0 0 
0 0 0 
0 0 0 
0 0 0 
0 0 0 
0 0 0 
0 0 0 
0 0 0 
0 0 0 
0 0 0 
0 0 0 
0 0 0 
0 0 0 
0 0 0 
0 0 0 
0 0 0 
0 0 0 
0 0 0 
0 0 0 
0 0 0 
0 0 0 
0 0 0 
0 0 0 
0 0 0 
0 0 0 
0 0 0 
0 0 0 
0 0 0 
0 0 0 
0.9998112 0.014019139 -0.013456345 
0.99989825 0.003628508 -0.0138009675 
0.9998793 -0.0076000146 -0.013556025 
0.99975616 -0.017410448 -0.013588652 
0 0 0 
0 0 0 
0 0 0 
0 0 0 
0 0 0 
0 0 0 
0 0 0 
0 0 0 
0 0 0 
0 0 0 
0 0 0 
0.9998167 0.014162553 -0.012884534 
0.99987334 0.008255284 -0.013607684 
0.99991226 0.0014589321 -0.013168202 
0.9998978 -0.0034437375 -0.013879282 
0.9998686 -0.009498031 -0.013141353 
0.999817 -0.013982884 -0.01305327 
0 0 0 
0 0 0 
0 0 0 
0 0 0 
0 0 0 
0 0 0 
0 0 0 
0 0 0 
0 0 0 
0 0 0 
0.99990785 0.003553339 -0.013106016 
0.99991596 0.0011857556 -0.012908904 
0.9999036 0.00033507048 -0.013884147 
0.99991643 -0.00016771334 -0.012923537 
0.9999065 -0.0005326045 -0.013667765 
0.9999138 -0.0022386357 -0.01293757 
0 0 0 
0 0 0 
0 0 0 
0 0 0 
0 0 0 
0 0 0 
0 0 0 
0 0 0 
0 0 0 
0 0 0 
0.9998821 -0.008480413 -0.01280468 
0.99989724 -0.004654907 -0.013557944 
0.9999169 -0.0010330696 -0.012856854 
0.9998992 0.0030349602 -0.013872689 
0.99989235 0.0069181267 -0.012947205 
0.9998524 0.011020945 -0.013176838 
0 0 0 
0 0 0 
0 0 0 
0 0 0 
0 0 0 
0 0 0 
0 0 0 
0 0 0 
0 0 0 
0 0 0 
0.9997302 -0.01933314 -0.01287319 
0.9998435 -0.012044309 -0.012964995 
0.99990237 -0.002555449 -0.013742572 
0.99989694 0.0059151407 -0.013083126 
0.99978775 0.015497179 -0.013576692 
0.99965876 0.022708366 -0.01290603 
0 0 0 
0 0 0 
0 0 0 
0 0 0 
0 0 0 
0 0 0 
0 0 0 
0 0 0 
0 0 0 
0 0 0 
0 0 0 
0.9997483 -0.018022329 -0.013367524 
0.99989676 -0.005267362 -0.013366788 
0.9998621 0.009446172 -0.013662573 
0.99966305 0.022256738 -0.013359085 
0 0 0 
0 0 0 
0 0 0 
0 0 0 
0 0 0 
0 0 0 
0 0 0 
0 0 0 
0 0 0 
0 0 0 
0 0 0 
0 0 0 
0 0 0 
0 0 0 
0 0 0 
0 0 0 
0 0 0 
0 0 0 
0 0 0 
0 0 0 
0 0 0 
0 0 0 
0 0 0 
0 0 0 
0 0 0 
0 0 0 
0 0 0 
0 0 0 
0 0 0 
0 0 0 
0 0 0 
0 0 0 
0 0 0 
0 0 0 
0 0 0 
0 0 0 
0 0 0 
0 0 0 
0 0 0 
0 0 0 
# End: Data Text
# End: Segment
