# OOMMF: rectangular mesh v1.0
# Segment count: 1
# Begin: Segment
# Begin: Header
# Desc: Time (s) :  3.0894439460104815e-09
# Title: m
# meshtype: rectangular
# meshunit: m
# xbase: 2.5e-09
# ybase: 2.5e-09
# zbase: 2.25e-08
# xstepsize: 5e-09
# ystepsize: 5e-09
# zstepsize: 4.5e-08
# xmin: 0
# ymin: 0
# zmin: 0
# xmax: 8e-08
# ymax: 1.6e-07
# zmax: 4.5e-08
# xnodes: 16
# ynodes: 32
# znodes: 1
# ValueRangeMinMag: 1e-08
# ValueRangeMaxMag: 1
# valueunit: 
# valuemultiplier: 1
# End: Header
# Begin: Data Text
0 0 0 
0 0 0 
0 0 0 
0 0 0 
0 0 0 
0 0 0 
0 0 0 
0 0 0 
0 0 0 
0 0 0 
0 0 0 
0 0 0 
0 0 0 
0 0 0 
0 0 0 
0 0 0 
0 0 0 
0 0 0 
0 0 0 
0 0 0 
0 0 0 
0 0 0 
0 0 0 
0 0 0 
0 0 0 
0 0 0 
0 0 0 
0 0 0 
0 0 0 
0 0 0 
0 0 0 
0 0 0 
0 0 0 
0 0 0 
0 0 0 
0 0 0 
0 0 0 
0 0 0 
0 0 0 
0 0 0 
0 0 0 
0 0 0 
0 0 0 
0 0 0 
0 0 0 
0 0 0 
0 0 0 
0 0 0 
0 0 0 
0 0 0 
0 0 0 
0 0 0 
0 0 0 
0 0 0 
0 0 0 
0 0 0 
0 0 0 
0 0 0 
0 0 0 
0 0 0 
0 0 0 
0 0 0 
0 0 0 
0 0 0 
0 0 0 
0 0 0 
0 0 0 
0 0 0 
0 0 0 
0 0 0 
0 0 0 
0 0 0 
0 0 0 
0 0 0 
0 0 0 
0 0 0 
0 0 0 
0 0 0 
0 0 0 
0 0 0 
0 0 0 
0 0 0 
0 0 0 
0 0 0 
0 0 0 
0 0 0 
0 0 0 
0 0 0 
0 0 0 
0 0 0 
0 0 0 
0 0 0 
0 0 0 
0 0 0 
0 0 0 
0 0 0 
0 0 0 
0 0 0 
0 0 0 
0 0 0 
0 0 0 
0 0 0 
0.999995 0.0031652495 0.00010498254 
0.9999718 -0.007517771 0.00010033853 
0.9998308 -0.018399686 0.00011040821 
0 0 0 
0 0 0 
0 0 0 
0 0 0 
0 0 0 
0 0 0 
0 0 0 
0 0 0 
0 0 0 
0 0 0 
0 0 0 
0 0 0 
0.9999325 0.011613965 0.00010084516 
0.99999833 0.0018476004 8.787262e-05 
0.9999769 -0.0068108635 0.00011734617 
0.9998772 -0.015673896 9.665901e-05 
0.999674 -0.025530942 0.00011301747 
0 0 0 
0 0 0 
0 0 0 
0 0 0 
0 0 0 
0 0 0 
0 0 0 
0 0 0 
0 0 0 
0 0 0 
0.9999346 0.011435041 9.110337e-05 
0.9999768 0.006814046 8.334802e-05 
1 0.00020990304 0.00011633981 
0.9999829 -0.0058612577 8.1065824e-05 
0.99993336 -0.011545657 0.00012051235 
0.9998473 -0.017478794 0.00010257201 
0 0 0 
0 0 0 
0 0 0 
0 0 0 
0 0 0 
0 0 0 
0 0 0 
0 0 0 
0 0 0 
0 0 0 
0.99998355 0.005726033 8.584031e-05 
0.999999 0.0014588754 0.000105734354 
0.9999982 -0.00189939 7.8613826e-05 
0.99998665 -0.005179187 0.0001211572 
0.9999674 -0.008087117 8.759624e-05 
0.9999598 -0.008963148 0.000110694804 
0 0 0 
0 0 0 
0 0 0 
0 0 0 
0 0 0 
0 0 0 
0 0 0 
0 0 0 
0 0 0 
0 0 0 
0 0 0 
0.9999642 -0.008469275 9.177128e-05 
0.99998474 -0.0055243988 0.000112130285 
0.9999857 -0.005364476 8.562684e-05 
0.9999848 -0.0055082557 0.000112836 
0.99999714 -0.0023751098 0.0001000077 
0 0 0 
0 0 0 
0 0 0 
0 0 0 
0 0 0 
0 0 0 
0 0 0 
0 0 0 
0 0 0 
0 0 0 
0 0 0 
0.99982256 -0.018838419 0.00010163966 
0.9999342 -0.011470313 9.561857e-05 
0.99998415 -0.0056281476 0.000106102954 
0.99999887 -0.0015344579 9.876026e-05 
0 0 0 
0 0 0 
0 0 0 
0 0 0 
0 0 0 
0 0 0 
0 0 0 
0 0 0 
0 0 0 
0 0 0 
0 0 0 
0 0 0 
0 0 0 
0 0 0 
0 0 0 
0 0 0 
0 0 0 
0 0 0 
0 0 0 
0 0 0 
0 0 0 
0 0 0 
0 0 0 
0 0 0 
0 0 0 
0 0 0 
0 0 0 
0 0 0 
0 0 0 
0 0 0 
0 0 0 
0 0 0 
0 0 0 
0 0 0 
0 0 0 
0 0 0 
0 0 0 
0 0 0 
0 0 0 
0 0 0 
0 0 0 
0 0 0 
0 0 0 
0 0 0 
0 0 0 
0.99999666 -0.0025835438 4.8970982e-05 
0.9999645 -0.008428583 0.00012832612 
0.9998917 -0.014718219 5.3953096e-05 
0 0 0 
0 0 0 
0 0 0 
0 0 0 
0 0 0 
0 0 0 
0 0 0 
0 0 0 
0 0 0 
0 0 0 
0 0 0 
0 0 0 
0.9999999 0.0004848025 2.7379814e-05 
0.9999909 -0.004271104 0.0001993818 
0.99997234 -0.0074508386 -6.856038e-05 
0.99993074 -0.011774771 0.00018952305 
0.999844 -0.017664162 4.5130997e-05 
0 0 0 
0 0 0 
0 0 0 
0 0 0 
0 0 0 
0 0 0 
0 0 0 
0 0 0 
0 0 0 
0 0 0 
0.99999076 -0.004296971 3.3822253e-05 
0.99998415 -0.0056272964 0.00019231775 
0.9999789 -0.0065076617 -0.00012975957 
0.99997747 -0.0067128777 0.00029390247 
0.99997836 -0.0065901056 -9.9257115e-05 
0.99996144 -0.008785135 0.00014098422 
0 0 0 
0 0 0 
0 0 0 
0 0 0 
0 0 0 
0 0 0 
0 0 0 
0 0 0 
0 0 0 
0 0 0 
0.99992037 -0.012620466 0.00011108881 
0.99993575 -0.011339 -7.978764e-05 
0.99995875 -0.009079239 0.00028857522 
0.9999842 -0.005621141 -0.00017386577 
0.9999966 -0.0026047307 0.00025804437 
0.9999999 0.00060325983 -3.1248648e-05 
0.9999967 0.0025653995 7.577053e-05 
0 0 0 
0 0 0 
0 0 0 
0 0 0 
0 0 0 
0 0 0 
0 0 0 
0 0 0 
0 0 0 
0.9997715 -0.021379571 3.5134097e-05 
0.9998322 -0.018320499 0.00017584894 
0.9999328 -0.011597294 -0.00010916422 
0.9999853 -0.0054272497 0.00025414742 
0.9999988 0.0015772064 -8.4472485e-05 
0.9999583 0.009145678 0.0001222243 
0 0 0 
0 0 0 
0 0 0 
0 0 0 
0 0 0 
0 0 0 
0 0 0 
0 0 0 
0 0 0 
0 0 0 
0 0 0 
0.9996621 -0.025994329 3.0954787e-05 
0.99987614 -0.015742023 0.0001301272 
0.9999876 -0.004987724 -3.988199e-05 
0.99997634 0.006878704 0.000119304095 
0.99981654 0.019157544 3.7680606e-05 
0 0 0 
0 0 0 
0 0 0 
0 0 0 
0 0 0 
0 0 0 
0 0 0 
0 0 0 
0 0 0 
0 0 0 
0 0 0 
0 0 0 
0 0 0 
0.9999811 -0.0061514433 6.912997e-05 
0 0 0 
0 0 0 
0 0 0 
0 0 0 
0 0 0 
0 0 0 
0 0 0 
0 0 0 
0 0 0 
0 0 0 
0 0 0 
0 0 0 
0 0 0 
0 0 0 
0 0 0 
0 0 0 
0 0 0 
0 0 0 
0 0 0 
0 0 0 
0 0 0 
0 0 0 
0 0 0 
0 0 0 
0 0 0 
0 0 0 
0 0 0 
0 0 0 
0 0 0 
0 0 0 
0 0 0 
0 0 0 
0 0 0 
0 0 0 
0 0 0 
0 0 0 
0 0 0 
0 0 0 
0 0 0 
0 0 0 
0 0 0 
0 0 0 
0 0 0 
0 0 0 
0 0 0 
0 0 0 
0 0 0 
0 0 0 
0 0 0 
0 0 0 
0 0 0 
0 0 0 
0 0 0 
0 0 0 
0 0 0 
0 0 0 
0 0 0 
0 0 0 
0 0 0 
0 0 0 
0.9998704 0.015580639 0.0040590647 
0.9999786 0.0052457373 0.003935726 
0.9999734 -0.005966266 0.0042060344 
0.99986804 -0.01574889 0.0040005823 
0 0 0 
0 0 0 
0 0 0 
0 0 0 
0 0 0 
0 0 0 
0 0 0 
0 0 0 
0 0 0 
0 0 0 
0 0 0 
0.99987143 0.015543555 0.0039465525 
0.9999456 0.009746485 0.0037428094 
0.99998605 0.002956987 0.0043782634 
0.9999914 -0.0018581025 0.0037045684 
0.99995923 -0.007960832 0.0042736866 
0.99991465 -0.012479506 0.0038752104 
0 0 0 
0 0 0 
0 0 0 
0 0 0 
0 0 0 
0 0 0 
0 0 0 
0 0 0 
0 0 0 
0 0 0 
0.9999807 0.004914027 0.0038049747 
0.99998736 0.0025657972 0.004336303 
0.9999921 0.0018269189 0.003531527 
0.99998915 0.0012732 0.004501459 
0.99999285 0.0009753294 0.003652116 
0.9999914 -0.00079976197 0.0040568234 
0 0 0 
0 0 0 
0 0 0 
0 0 0 
0 0 0 
0 0 0 
0 0 0 
0 0 0 
0 0 0 
0 0 0 
0.999966 -0.0071756556 0.0040691015 
0.99998796 -0.003266062 0.0036557526 
0.99998987 0.00032581258 0.0044961283 
0.9999838 0.004493219 0.0035149376 
0.99995625 0.008310968 0.004311776 
0.99991566 0.0124276 0.0037769994 
0 0 0 
0 0 0 
0 0 0 
0 0 0 
0 0 0 
0 0 0 
0 0 0 
0 0 0 
0 0 0 
0 0 0 
0.9998299 -0.018036582 0.003873525 
0.9999335 -0.01072713 0.004258777 
0.9999926 -0.0011609269 0.0036764033 
0.99996424 0.0072715147 0.0043425523 
0.9998504 0.016902048 0.0037009735 
0.99970275 0.024066692 0.003906709 
0 0 0 
0 0 0 
0 0 0 
0 0 0 
0 0 0 
0 0 0 
0 0 0 
0 0 0 
0 0 0 
0 0 0 
0 0 0 
0.99985325 -0.016665783 0.0039647706 
0.99998367 -0.003908006 0.004163469 
0.9999337 0.01083931 0.0038850252 
0.9997125 0.02363931 0.0040055476 
0 0 0 
0 0 0 
0 0 0 
0 0 0 
0 0 0 
0 0 0 
0 0 0 
0 0 0 
0 0 0 
0 0 0 
0 0 0 
0 0 0 
0 0 0 
0 0 0 
0 0 0 
0 0 0 
0 0 0 
0 0 0 
0 0 0 
0 0 0 
0 0 0 
0 0 0 
0 0 0 
0 0 0 
0 0 0 
0 0 0 
0 0 0 
0 0 0 
0 0 0 
0 0 0 
0 0 0 
0 0 0 
0 0 0 
0 0 0 
0 0 0 
0 0 0 
0 0 0 
0 0 0 
0 0 0 
0 0 0 
# End: Data Text
# End: Segment
