# OOMMF: rectangular mesh v1.0
# Segment count: 1
# Begin: Segment
# Begin: Header
# Desc: Time (s) :  1.1628724744237944e-09
# Title: m
# meshtype: rectangular
# meshunit: m
# xbase: 2.5e-09
# ybase: 2.5e-09
# zbase: 2.25e-08
# xstepsize: 5e-09
# ystepsize: 5e-09
# zstepsize: 4.5e-08
# xmin: 0
# ymin: 0
# zmin: 0
# xmax: 8e-08
# ymax: 1.6e-07
# zmax: 4.5e-08
# xnodes: 16
# ynodes: 32
# znodes: 1
# ValueRangeMinMag: 1e-08
# ValueRangeMaxMag: 1
# valueunit: 
# valuemultiplier: 1
# End: Header
# Begin: Data Text
0 0 0 
0 0 0 
0 0 0 
0 0 0 
0 0 0 
0 0 0 
0 0 0 
0 0 0 
0 0 0 
0 0 0 
0 0 0 
0 0 0 
0 0 0 
0 0 0 
0 0 0 
0 0 0 
0 0 0 
0 0 0 
0 0 0 
0 0 0 
0 0 0 
0 0 0 
0 0 0 
0 0 0 
0 0 0 
0 0 0 
0 0 0 
0 0 0 
0 0 0 
0 0 0 
0 0 0 
0 0 0 
0 0 0 
0 0 0 
0 0 0 
0 0 0 
0 0 0 
0 0 0 
0 0 0 
0 0 0 
0 0 0 
0 0 0 
0 0 0 
0 0 0 
0 0 0 
0 0 0 
0 0 0 
0 0 0 
0 0 0 
0 0 0 
0 0 0 
0 0 0 
0 0 0 
0 0 0 
0 0 0 
0 0 0 
0 0 0 
0 0 0 
0 0 0 
0 0 0 
0 0 0 
0 0 0 
0 0 0 
0 0 0 
0 0 0 
0 0 0 
0 0 0 
0 0 0 
0 0 0 
0 0 0 
0 0 0 
0 0 0 
0 0 0 
0 0 0 
0 0 0 
0 0 0 
0 0 0 
0 0 0 
0 0 0 
0 0 0 
0 0 0 
0 0 0 
0 0 0 
0 0 0 
0 0 0 
0 0 0 
0 0 0 
0 0 0 
0 0 0 
0 0 0 
0 0 0 
0 0 0 
0 0 0 
0 0 0 
0 0 0 
0 0 0 
0 0 0 
0 0 0 
0 0 0 
0 0 0 
0 0 0 
0 0 0 
0.9999952 0.0031067182 8.1529295e-05 
0.99997157 -0.0075371917 9.965535e-05 
0.99982965 -0.018457571 8.736812e-05 
0 0 0 
0 0 0 
0 0 0 
0 0 0 
0 0 0 
0 0 0 
0 0 0 
0 0 0 
0 0 0 
0 0 0 
0 0 0 
0 0 0 
0.99993324 0.011552222 7.518867e-05 
0.9999983 0.0018677228 0.000109983346 
0.9999761 -0.006925738 6.0815222e-05 
0.9998774 -0.015662055 0.00011384072 
0.9996726 -0.025588587 8.965844e-05 
0 0 0 
0 0 0 
0 0 0 
0 0 0 
0 0 0 
0 0 0 
0 0 0 
0 0 0 
0 0 0 
0 0 0 
0.99993515 0.011385376 7.2366405e-05 
0.99997675 0.0068311985 0.00010378907 
1 7.362763e-05 4.748127e-05 
0.9999832 -0.0057973457 0.00012881093 
0.999932 -0.0116679855 5.9733502e-05 
0.999847 -0.017493106 0.00010448994 
0 0 0 
0 0 0 
0 0 0 
0 0 0 
0 0 0 
0 0 0 
0 0 0 
0 0 0 
0 0 0 
0 0 0 
0.9999837 0.005702866 8.2503015e-05 
0.9999991 0.001360141 5.8966587e-05 
0.99999833 -0.0018422791 0.00012276266 
0.9999858 -0.005328729 4.4892327e-05 
0.99996763 -0.008049069 0.00012038776 
0.9999593 -0.009034549 7.9677695e-05 
0 0 0 
0 0 0 
0 0 0 
0 0 0 
0 0 0 
0 0 0 
0 0 0 
0 0 0 
0 0 0 
0 0 0 
0 0 0 
0.99996406 -0.008479022 9.735655e-05 
0.99998415 -0.005635011 5.8981193e-05 
0.9999858 -0.005330451 0.000116604904 
0.9999843 -0.0056074406 6.6066066e-05 
0.9999971 -0.002402242 9.473101e-05 
0 0 0 
0 0 0 
0 0 0 
0 0 0 
0 0 0 
0 0 0 
0 0 0 
0 0 0 
0 0 0 
0 0 0 
0 0 0 
0.9998216 -0.018891228 8.26931e-05 
0.999934 -0.0114890225 9.643883e-05 
0.9999838 -0.005698236 7.676068e-05 
0.9999988 -0.0015630339 9.358122e-05 
0 0 0 
0 0 0 
0 0 0 
0 0 0 
0 0 0 
0 0 0 
0 0 0 
0 0 0 
0 0 0 
0 0 0 
0 0 0 
0 0 0 
0 0 0 
0 0 0 
0 0 0 
0 0 0 
0 0 0 
0 0 0 
0 0 0 
0 0 0 
0 0 0 
0 0 0 
0 0 0 
0 0 0 
0 0 0 
0 0 0 
0 0 0 
0 0 0 
0 0 0 
0 0 0 
0 0 0 
0 0 0 
0 0 0 
0 0 0 
0 0 0 
0 0 0 
0 0 0 
0 0 0 
0 0 0 
0 0 0 
0 0 0 
0 0 0 
0 0 0 
0 0 0 
0 0 0 
0.99999654 -0.0026377398 4.277153e-05 
0.9999637 -0.0085239895 7.440495e-05 
0.9998909 -0.014773901 4.6037465e-05 
0 0 0 
0 0 0 
0 0 0 
0 0 0 
0 0 0 
0 0 0 
0 0 0 
0 0 0 
0 0 0 
0 0 0 
0 0 0 
0 0 0 
0.9999999 0.0004447324 3.2444685e-05 
0.99999034 -0.0044023655 0.00010022271 
0.9999723 -0.0074413493 -3.8203293e-06 
0.9999292 -0.011900259 9.771457e-05 
0.9998432 -0.017712248 4.1372252e-05 
0 0 0 
0 0 0 
0 0 0 
0 0 0 
0 0 0 
0 0 0 
0 0 0 
0 0 0 
0 0 0 
0 0 0 
0.9999906 -0.0043380535 3.342594e-05 
0.9999835 -0.0057532107 9.5599346e-05 
0.99997914 -0.0064661433 -2.9520463e-05 
0.99997634 -0.0068941335 0.00013567043 
0.9999785 -0.006564506 -1.7600605e-05 
0.9999606 -0.008885011 7.6591816e-05 
0 0 0 
0 0 0 
0 0 0 
0 0 0 
0 0 0 
0 0 0 
0 0 0 
0 0 0 
0 0 0 
0 0 0 
0.9999193 -0.012702225 6.3288135e-05 
0.9999359 -0.011322897 -1.0792146e-05 
0.99995714 -0.009257713 0.00013150364 
0.9999846 -0.005558421 -4.905255e-05 
0.9999962 -0.0027685019 0.00011918882 
0.9999998 0.0005926919 6.1957817e-06 
0.99999696 0.0025010863 4.7061585e-05 
0 0 0 
0 0 0 
0 0 0 
0 0 0 
0 0 0 
0 0 0 
0 0 0 
0 0 0 
0 0 0 
0.9997706 -0.021421371 3.3931283e-05 
0.99983007 -0.018438587 8.7607776e-05 
0.9999331 -0.011569065 -2.4624323e-05 
0.9999844 -0.0055911546 0.00011506417 
0.9999988 0.0015909608 -1.6922291e-05 
0.99995905 0.009051864 6.3994994e-05 
0 0 0 
0 0 0 
0 0 0 
0 0 0 
0 0 0 
0 0 0 
0 0 0 
0 0 0 
0 0 0 
0 0 0 
0 0 0 
0.99966097 -0.026038455 3.0714065e-05 
0.9998746 -0.015840558 6.6798195e-05 
0.9999875 -0.0050012823 -1.9776462e-06 
0.99997705 0.0067836074 6.056438e-05 
0.9998175 0.01910648 2.96407e-05 
0 0 0 
0 0 0 
0 0 0 
0 0 0 
0 0 0 
0 0 0 
0 0 0 
0 0 0 
0 0 0 
0 0 0 
0 0 0 
0 0 0 
0 0 0 
0.9999806 -0.006229735 3.654745e-05 
0 0 0 
0 0 0 
0 0 0 
0 0 0 
0 0 0 
0 0 0 
0 0 0 
0 0 0 
0 0 0 
0 0 0 
0 0 0 
0 0 0 
0 0 0 
0 0 0 
0 0 0 
0 0 0 
0 0 0 
0 0 0 
0 0 0 
0 0 0 
0 0 0 
0 0 0 
0 0 0 
0 0 0 
0 0 0 
0 0 0 
0 0 0 
0 0 0 
0 0 0 
0 0 0 
0 0 0 
0 0 0 
0 0 0 
0 0 0 
0 0 0 
0 0 0 
0 0 0 
0 0 0 
0 0 0 
0 0 0 
0 0 0 
0 0 0 
0 0 0 
0 0 0 
0 0 0 
0 0 0 
0 0 0 
0 0 0 
0 0 0 
0 0 0 
0 0 0 
0 0 0 
0 0 0 
0 0 0 
0 0 0 
0 0 0 
0 0 0 
0 0 0 
0 0 0 
0 0 0 
0.9998705 0.015604786 0.0039348467 
0.999979 0.00504622 0.0040597552 
0.99997467 -0.005879007 0.004009796 
0.99986565 -0.01588433 0.004053102 
0 0 0 
0 0 0 
0 0 0 
0 0 0 
0 0 0 
0 0 0 
0 0 0 
0 0 0 
0 0 0 
0 0 0 
0 0 0 
0.99987143 0.015571627 0.003824543 
0.9999477 0.009405795 0.0040275785 
0.999987 0.0033162874 0.0038818647 
0.99998873 -0.0023261185 0.004129327 
0.99996245 -0.0077288225 0.0039193085 
0.99991274 -0.012611552 0.0039289817 
0 0 0 
0 0 0 
0 0 0 
0 0 0 
0 0 0 
0 0 0 
0 0 0 
0 0 0 
0 0 0 
0 0 0 
0.9999811 0.0047185263 0.0039310236 
0.99998844 0.0029271364 0.0038402868 
0.99999076 0.0011959481 0.0041395873 
0.9999911 0.0017962246 0.003823576 
0.99999166 0.0005088948 0.00407767 
0.9999923 -0.0007083131 0.0038631733 
0 0 0 
0 0 0 
0 0 0 
0 0 0 
0 0 0 
0 0 0 
0 0 0 
0 0 0 
0 0 0 
0 0 0 
0.99996746 -0.007082642 0.003875383 
0.99998474 -0.0037329358 0.0040828492 
0.9999924 0.00085035636 0.0038176426 
0.99998415 0.0038624303 0.0041233287 
0.9999551 0.008671423 0.0038162537 
0.9999176 0.012232039 0.0039027263 
0 0 0 
0 0 0 
0 0 0 
0 0 0 
0 0 0 
0 0 0 
0 0 0 
0 0 0 
0 0 0 
0 0 0 
0.9998272 -0.018167585 0.0039284374 
0.99993736 -0.010492327 0.0039039855 
0.9999902 -0.0016290369 0.0041033137 
0.99996346 0.007632202 0.0038460272 
0.999855 0.01656186 0.0039863754 
0.9997026 0.024094699 0.003784959 
0 0 0 
0 0 0 
0 0 0 
0 0 0 
0 0 0 
0 0 0 
0 0 0 
0 0 0 
0 0 0 
0 0 0 
0 0 0 
0.99985075 -0.016799735 0.0040188106 
0.99998486 -0.003818457 0.0039676884 
0.9999353 0.0106407665 0.004010492 
0.99971235 0.023664575 0.0038820107 
0 0 0 
0 0 0 
0 0 0 
0 0 0 
0 0 0 
0 0 0 
0 0 0 
0 0 0 
0 0 0 
0 0 0 
0 0 0 
0 0 0 
0 0 0 
0 0 0 
0 0 0 
0 0 0 
0 0 0 
0 0 0 
0 0 0 
0 0 0 
0 0 0 
0 0 0 
0 0 0 
0 0 0 
0 0 0 
0 0 0 
0 0 0 
0 0 0 
0 0 0 
0 0 0 
0 0 0 
0 0 0 
0 0 0 
0 0 0 
0 0 0 
0 0 0 
0 0 0 
0 0 0 
0 0 0 
0 0 0 
# End: Data Text
# End: Segment
