# OOMMF: rectangular mesh v1.0
# Segment count: 1
# Begin: Segment
# Begin: Header
# Desc: Time (s) :  1.1486662643910586e-08
# Title: m
# meshtype: rectangular
# meshunit: m
# xbase: 2.5e-09
# ybase: 2.5e-09
# zbase: 2.25e-08
# xstepsize: 5e-09
# ystepsize: 5e-09
# zstepsize: 4.5e-08
# xmin: 0
# ymin: 0
# zmin: 0
# xmax: 8e-08
# ymax: 1.6e-07
# zmax: 4.5e-08
# xnodes: 16
# ynodes: 32
# znodes: 1
# ValueRangeMinMag: 1e-08
# ValueRangeMaxMag: 1
# valueunit: 
# valuemultiplier: 1
# End: Header
# Begin: Data Text
0 0 0 
0 0 0 
0 0 0 
0 0 0 
0 0 0 
0 0 0 
0 0 0 
0 0 0 
0 0 0 
0 0 0 
0 0 0 
0 0 0 
0 0 0 
0 0 0 
0 0 0 
0 0 0 
0 0 0 
0 0 0 
0 0 0 
0 0 0 
0 0 0 
0 0 0 
0 0 0 
0 0 0 
0 0 0 
0 0 0 
0 0 0 
0 0 0 
0 0 0 
0 0 0 
0 0 0 
0 0 0 
0 0 0 
0 0 0 
0 0 0 
0 0 0 
0 0 0 
0 0 0 
0 0 0 
0 0 0 
0 0 0 
0 0 0 
0 0 0 
0 0 0 
0 0 0 
0 0 0 
0 0 0 
0 0 0 
0 0 0 
0 0 0 
0 0 0 
0 0 0 
0 0 0 
0 0 0 
0 0 0 
0 0 0 
0 0 0 
0 0 0 
0 0 0 
0 0 0 
0 0 0 
0 0 0 
0 0 0 
0 0 0 
0 0 0 
0 0 0 
0 0 0 
0 0 0 
0 0 0 
0 0 0 
0 0 0 
0 0 0 
0 0 0 
0 0 0 
0 0 0 
0 0 0 
0 0 0 
0 0 0 
0 0 0 
0 0 0 
0 0 0 
0 0 0 
0 0 0 
0 0 0 
0 0 0 
0 0 0 
0 0 0 
0 0 0 
0 0 0 
0 0 0 
0 0 0 
0 0 0 
0 0 0 
0 0 0 
0 0 0 
0 0 0 
0 0 0 
0 0 0 
0 0 0 
0 0 0 
0 0 0 
0 0 0 
0.9995697 -0.015878763 -0.024663141 
0.99933475 -0.026663912 -0.02488344 
0.99898493 -0.037581936 -0.024831709 
0 0 0 
0 0 0 
0 0 0 
0 0 0 
0 0 0 
0 0 0 
0 0 0 
0 0 0 
0 0 0 
0 0 0 
0 0 0 
0 0 0 
0.99969405 -0.006331693 -0.023910627 
0.99956614 -0.016564948 -0.024355128 
0.99936986 -0.025540547 -0.024647955 
0.9991003 -0.034431875 -0.02476042 
0.9987209 -0.04413577 -0.024672214 
0 0 0 
0 0 0 
0 0 0 
0 0 0 
0 0 0 
0 0 0 
0 0 0 
0 0 0 
0 0 0 
0 0 0 
0.9997371 -0.005192715 -0.022339081 
0.99966484 -0.010809023 -0.023523686 
0.9995459 -0.018049322 -0.024129966 
0.99940187 -0.024403395 -0.024506703 
0.9992345 -0.030294122 -0.024754973 
0.9990333 -0.03622462 -0.024908299 
0 0 0 
0 0 0 
0 0 0 
0 0 0 
0 0 0 
0 0 0 
0 0 0 
0 0 0 
0 0 0 
0 0 0 
0.99968994 -0.010931101 -0.022370359 
0.99958783 -0.016347526 -0.023599567 
0.9995034 -0.020212753 -0.024176855 
0.99941355 -0.023870168 -0.024552833 
0.99933004 -0.026885811 -0.02483349 
0.9992986 -0.02785155 -0.025036395 
0 0 0 
0 0 0 
0 0 0 
0 0 0 
0 0 0 
0 0 0 
0 0 0 
0 0 0 
0 0 0 
0 0 0 
0 0 0 
0.9993463 -0.026886163 -0.024167657 
0.99940795 -0.024210013 -0.024451021 
0.9993999 -0.024231266 -0.024754995 
0.99938774 -0.024506537 -0.024975583 
0.9994624 -0.02119466 -0.025011513 
0 0 0 
0 0 0 
0 0 0 
0 0 0 
0 0 0 
0 0 0 
0 0 0 
0 0 0 
0 0 0 
0 0 0 
0 0 0 
0.99899864 -0.03764226 -0.024182597 
0.9992329 -0.030443178 -0.024632664 
0.99938136 -0.024768386 -0.024968447 
0.9994647 -0.02086113 -0.025203012 
0 0 0 
0 0 0 
0 0 0 
0 0 0 
0 0 0 
0 0 0 
0 0 0 
0 0 0 
0 0 0 
0 0 0 
0 0 0 
0 0 0 
0 0 0 
0 0 0 
0 0 0 
0 0 0 
0 0 0 
0 0 0 
0 0 0 
0 0 0 
0 0 0 
0 0 0 
0 0 0 
0 0 0 
0 0 0 
0 0 0 
0 0 0 
0 0 0 
0 0 0 
0 0 0 
0 0 0 
0 0 0 
0 0 0 
0 0 0 
0 0 0 
0 0 0 
0 0 0 
0 0 0 
0 0 0 
0 0 0 
0 0 0 
0 0 0 
0 0 0 
0 0 0 
0 0 0 
0.9989404 -0.029058034 -0.035688885 
0.99875164 -0.034833092 -0.035803586 
0.9985132 -0.041202396 -0.035688303 
0 0 0 
0 0 0 
0 0 0 
0 0 0 
0 0 0 
0 0 0 
0 0 0 
0 0 0 
0 0 0 
0 0 0 
0 0 0 
0 0 0 
0.9991318 -0.02385184 -0.03415822 
0.9989621 -0.029167337 -0.034985468 
0.9988443 -0.032922935 -0.035015885 
0.99869967 -0.03686991 -0.03520997 
0.9985052 -0.042337716 -0.034569353 
0 0 0 
0 0 0 
0 0 0 
0 0 0 
0 0 0 
0 0 0 
0 0 0 
0 0 0 
0 0 0 
0 0 0 
0.9991411 -0.026596695 -0.03177593 
0.99902076 -0.028978644 -0.033435952 
0.99894285 -0.030989565 -0.033954225 
0.9989191 -0.030979449 -0.034653284 
0.99891627 -0.031334616 -0.034415893 
0.99886304 -0.03296044 -0.034443397 
0 0 0 
0 0 0 
0 0 0 
0 0 0 
0 0 0 
0 0 0 
0 0 0 
0 0 0 
0 0 0 
0 0 0 
0.99889326 -0.034727465 -0.03172305 
0.99885756 -0.03470496 -0.032850377 
0.9988938 -0.032617815 -0.033870764 
0.9989747 -0.030039813 -0.03387012 
0.99906486 -0.026413059 -0.034232643 
0.9991749 -0.023017677 -0.033461668 
0.99932516 -0.019120144 -0.031362843 
0 0 0 
0 0 0 
0 0 0 
0 0 0 
0 0 0 
0 0 0 
0 0 0 
0 0 0 
0 0 0 
0.99855703 -0.04347828 -0.03152101 
0.99860245 -0.041279633 -0.033003446 
0.99880755 -0.035510924 -0.033505864 
0.9989861 -0.029255396 -0.03421845 
0.9991666 -0.022598501 -0.033993747 
0.9993167 -0.014544276 -0.03397907 
0 0 0 
0 0 0 
0 0 0 
0 0 0 
0 0 0 
0 0 0 
0 0 0 
0 0 0 
0 0 0 
0 0 0 
0 0 0 
0.99821955 -0.049509145 -0.03326758 
0.99864346 -0.03949329 -0.033933327 
0.9989703 -0.029619964 -0.03436656 
0.9992635 -0.017171275 -0.034318365 
0.99941844 -0.0047548926 -0.033765953 
0 0 0 
0 0 0 
0 0 0 
0 0 0 
0 0 0 
0 0 0 
0 0 0 
0 0 0 
0 0 0 
0 0 0 
0 0 0 
0 0 0 
0 0 0 
0.99884903 -0.032414593 -0.035354417 
0 0 0 
0 0 0 
0 0 0 
0 0 0 
0 0 0 
0 0 0 
0 0 0 
0 0 0 
0 0 0 
0 0 0 
0 0 0 
0 0 0 
0 0 0 
0 0 0 
0 0 0 
0 0 0 
0 0 0 
0 0 0 
0 0 0 
0 0 0 
0 0 0 
0 0 0 
0 0 0 
0 0 0 
0 0 0 
0 0 0 
0 0 0 
0 0 0 
0 0 0 
0 0 0 
0 0 0 
0 0 0 
0 0 0 
0 0 0 
0 0 0 
0 0 0 
0 0 0 
0 0 0 
0 0 0 
0 0 0 
0 0 0 
0 0 0 
0 0 0 
0 0 0 
0 0 0 
0 0 0 
0 0 0 
0 0 0 
0 0 0 
0 0 0 
0 0 0 
0 0 0 
0 0 0 
0 0 0 
0 0 0 
0 0 0 
0 0 0 
0 0 0 
0 0 0 
0 0 0 
0.9998315 0.00087907613 0.018337794 
0.9997778 -0.009607704 0.018763678 
0.9996101 -0.020860007 0.018560927 
0.9993577 -0.030643377 0.018579675 
0 0 0 
0 0 0 
0 0 0 
0 0 0 
0 0 0 
0 0 0 
0 0 0 
0 0 0 
0 0 0 
0 0 0 
0 0 0 
0.99984246 0.0018085337 0.017656952 
0.9998188 -0.0045173145 0.018491745 
0.9997705 -0.011453033 0.018101765 
0.9996877 -0.016420899 0.018841002 
0.999587 -0.022331707 0.018086128 
0.9994899 -0.026451815 0.017895581 
0 0 0 
0 0 0 
0 0 0 
0 0 0 
0 0 0 
0 0 0 
0 0 0 
0 0 0 
0 0 0 
0 0 0 
0.9998006 -0.008766461 0.017943231 
0.9997763 -0.011417672 0.017806869 
0.9997456 -0.01246302 0.018802918 
0.99975723 -0.012944959 0.017832251 
0.9997402 -0.013237033 0.018556796 
0.99973524 -0.014637332 0.0177543 
0 0 0 
0 0 0 
0 0 0 
0 0 0 
0 0 0 
0 0 0 
0 0 0 
0 0 0 
0 0 0 
0 0 0 
0.999628 -0.020768713 0.017680418 
0.9996802 -0.01726386 0.018481784 
0.99974775 -0.0137483515 0.01776351 
0.9997768 -0.009743688 0.018749239 
0.99982584 -0.0057052863 0.017769825 
0.99983853 -0.0013450764 0.017921185 
0 0 0 
0 0 0 
0 0 0 
0 0 0 
0 0 0 
0 0 0 
0 0 0 
0 0 0 
0 0 0 
0 0 0 
0.9993418 -0.03164019 0.017744556 
0.99953437 -0.02471216 0.017901387 
0.99970746 -0.015394608 0.01865851 
0.99981534 -0.0069011594 0.01793401 
0.99982774 0.0027764728 0.018351292 
0.99979216 0.010359169 0.017560773 
0 0 0 
0 0 0 
0 0 0 
0 0 0 
0 0 0 
0 0 0 
0 0 0 
0 0 0 
0 0 0 
0 0 0 
0 0 0 
0.9993507 -0.03103262 0.01830372 
0.99966466 -0.018332515 0.018290225 
0.9998221 -0.0036363208 0.018513164 
0.99979335 0.009237048 0.01810965 
0 0 0 
0 0 0 
0 0 0 
0 0 0 
0 0 0 
0 0 0 
0 0 0 
0 0 0 
0 0 0 
0 0 0 
0 0 0 
0 0 0 
0 0 0 
0 0 0 
0 0 0 
0 0 0 
0 0 0 
0 0 0 
0 0 0 
0 0 0 
0 0 0 
0 0 0 
0 0 0 
0 0 0 
0 0 0 
0 0 0 
0 0 0 
0 0 0 
0 0 0 
0 0 0 
0 0 0 
0 0 0 
0 0 0 
0 0 0 
0 0 0 
0 0 0 
0 0 0 
0 0 0 
0 0 0 
0 0 0 
# End: Data Text
# End: Segment
