# t (s)	mx ()	my ()	mz ()	B_extx (T)	B_exty (T)	B_extz (T)
1e-12	0.99995244	-0.0034098036	0.0013015723	0.36	0	0
1.6224300381005456e-11	0.99995244	-0.0033870144	0.0013164125	0.36	0	3.7317038e-06
3.0524795407859163e-11	0.9999522	-0.0034213795	0.0013258982	0.36	0	-1.1808258e-05
4.5408468728581875e-11	0.99995214	-0.0034590967	0.001290886	0.36	0	-4.0370523e-06
6.014147735780853e-11	0.99995244	-0.0034150046	0.0012577688	0.36	0	1.1945966e-05
7.49618633611075e-11	0.99995244	-0.003354167	0.0012871871	0.36	0	3.8717826e-06
8.94440128258024e-11	0.9999523	-0.0033796355	0.0013359286	0.36	0	-1.1945477e-05
1.042094742751777e-10	0.99995214	-0.0034441247	0.0013312906	0.36	0	-4.0980663e-06
1.187737887204237e-10	0.9999522	-0.0034403435	0.0012931988	0.36	0	1.1955921e-05
1.3369947914001565e-10	0.99995244	-0.0033964538	0.001286837	0.36	0	4.0137015e-06
1.4849232944299248e-10	0.9999522	-0.0034046024	0.001301082	0.36	0	-1.2138911e-05
1.6318290413814433e-10	0.9999522	-0.0034292277	0.001291085	0.36	0	-3.9369174e-06
1.777837469477241e-10	0.99995244	-0.0033986152	0.0012827069	0.36	0	1.2136082e-05
1.9231570672707537e-10	0.99995244	-0.003365228	0.0013138271	0.36	0	4.3145105e-06
2.072848195619399e-10	0.9999522	-0.0034100735	0.0013432916	0.36	0	-1.222378e-05
2.2170678905142763e-10	0.999952	-0.0034662916	0.0013118337	0.36	0	-4.358747e-06
2.365791893192615e-10	0.9999523	-0.0034355104	0.0012625718	0.36	0	1.2222062e-05
2.514153927096544e-10	0.99995244	-0.003368351	0.0012734577	0.36	0	3.988595e-06
2.657253680658582e-10	0.9999523	-0.0033763302	0.0013155387	0.36	0	-1.2148221e-05
2.8050362044111413e-10	0.9999522	-0.0034269192	0.0013224992	0.36	0	-4.4291273e-06
2.9525655396903577e-10	0.9999522	-0.0034230982	0.0013015654	0.36	0	1.225491e-05
3.0999011018138303e-10	0.99995244	-0.0033930775	0.0013052665	0.36	0	4.3493387e-06
3.2470596481037947e-10	0.9999522	-0.003416928	0.0013150005	0.36	0	-1.2322853e-05
3.3940846332629175e-10	0.999952	-0.0034488658	0.001288717	0.36	0	-4.3585455e-06
3.5409685418254574e-10	0.9999523	-0.0034078164	0.0012645461	0.36	0	1.236385e-05
3.68774576471875e-10	0.9999526	-0.0033544083	0.0012967236	0.36	0	4.436921e-06
3.8344246823893083e-10	0.9999523	-0.003387997	0.0013419263	0.36	0	-1.2383447e-05
3.9810352008799797e-10	0.99995214	-0.0034546272	0.0013279752	0.36	0	-4.565032e-06
4.1324467766984077e-10	0.9999522	-0.0034419056	0.0012796859	0.36	0	1.2613043e-05
4.2789141514964396e-10	0.99995244	-0.0033861876	0.001277421	0.36	0	4.0809505e-06
4.4253249078543467e-10	0.9999522	-0.0033910996	0.0013042764	0.36	0	-1.2611269e-05
4.5717002821054965e-10	0.9999522	-0.0034257055	0.0013038685	0.36	0	-4.277665e-06
4.71803057672887e-10	0.9999523	-0.003406942	0.0012925556	0.36	0	1.2599174e-05
4.86432592452216e-10	0.99995244	-0.0033764455	0.001313334	0.36	0	4.496733e-06
5.010586318573624e-10	0.9999522	-0.0034137396	0.0013329777	0.36	0	-1.2576701e-05
5.161706095728389e-10	0.999952	-0.0034629777	0.0013003445	0.36	0	-4.0726704e-06
5.307924870982152e-10	0.9999522	-0.0034245304	0.0012603182	0.36	0	1.2782336e-05
5.454121256167281e-10	0.99995244	-0.0033604072	0.0012805717	0.36	0	4.3227437e-06
5.600297659402835e-10	0.99995244	-0.0033788274	0.0013271146	0.36	0	-1.2755507e-05
5.74646951961384e-10	0.9999522	-0.0034375289	0.0013268064	0.36	0	-4.582596e-06
5.892621289450792e-10	0.9999522	-0.0034323707	0.001296046	0.36	0	1.2721518e-05
6.043635623329204e-10	0.99995244	-0.0033920242	0.0012940156	0.36	0	4.1833923e-06
6.189764899661769e-10	0.9999522	-0.0034079645	0.0013087116	0.36	0	-1.29229165e-05
6.335892954580527e-10	0.99995214	-0.0034392343	0.0012923239	0.36	0	-4.4585563e-06
6.482008585913995e-10	0.9999522	-0.003405173	0.0012751094	0.36	0	1.2888668e-05
6.628120983950321e-10	0.9999525	-0.0033608663	0.0013051619	0.36	0	4.7383346e-06
6.779091895695577e-10	0.99995244	-0.0033998867	0.0013406795	0.36	0	-1.3084655e-05
6.925194612642403e-10	0.999952	-0.0034604366	0.001317169	0.36	0	-4.3486366e-06
7.071289578322916e-10	0.9999522	-0.0034367568	0.0012722273	0.36	0	1.3051641e-05
7.217383305807623e-10	0.99995244	-0.0033763961	0.0012777817	0.36	0	4.6369014e-06
7.36346773835184e-10	0.99995244	-0.0033856991	0.0013123349	0.36	0	-1.3011829e-05
7.514425674455677e-10	0.9999522	-0.0034306461	0.0013121347	0.36	0	-4.246198e-06
7.660508603580813e-10	0.9999522	-0.0034154498	0.0012939032	0.36	0	1.3212912e-05
7.806591161842971e-10	0.99995244	-0.0033816986	0.0013077328	0.36	0	4.5407974e-06
7.952666427845979e-10	0.9999523	-0.0034131305	0.001325005	0.36	0	-1.3175303e-05
8.098746041848663e-10	0.999952	-0.0034560463	0.0012968222	0.36	0	-4.837481e-06
8.24969141311851e-10	0.9999522	-0.003416717	0.001264712	0.36	0	1.3373893e-05
8.39576715991107e-10	0.9999525	-0.003358939	0.0012901239	0.36	0	4.4470394e-06
8.541837255834393e-10	0.99995244	-0.0033865005	0.0013332978	0.36	0	-1.33389e-05
8.687911309047962e-10	0.9999522	-0.003447669	0.0013231998	0.36	0	-4.7484596e-06
8.833984615140947e-10	0.9999522	-0.003434235	0.0012859892	0.36	0	1.3297736e-05
8.984923783234314e-10	0.9999523	-0.003385408	0.0012896282	0.36	0	4.353949e-06
9.130990823887453e-10	0.9999522	-0.0034015242	0.001311282	0.36	0	-1.3503251e-05
9.27706169429019e-10	0.9999522	-0.0034386786	0.0012982341	0.36	0	-4.6595096e-06
9.423132371903685e-10	0.9999523	-0.003408739	0.0012791579	0.36	0	1.34649335e-05
9.569197701046913e-10	0.99995244	-0.0033649849	0.0013054815	0.36	0	4.965984e-06
9.720133512743835e-10	0.9999523	-0.0034044413	0.0013372492	0.36	0	-1.3668746e-05
9.866202209365502e-10	0.99995214	-0.0034611414	0.0013106384	0.36	0	-4.5699376e-06
1.0012271065117128e-09	0.99995214	-0.00343104	0.0012681808	0.36	0	1.3633417e-05
1.0158334631146581e-09	0.9999523	-0.0033688247	0.0012811979	0.36	0	4.8803004e-06
1.030440125727802e-09	0.99995244	-0.003385	0.001320497	0.36	0	-1.3591247e-05
1.0455336199050273e-09	0.9999522	-0.0034377135	0.0013145901	0.36	0	-4.479259e-06
1.0601403758967731e-09	0.9999522	-0.003420373	0.0012896187	0.36	0	1.380341e-05
1.0747466267144813e-09	0.9999523	-0.0033796527	0.0013023058	0.36	0	4.7933654e-06
1.0893532238918383e-09	0.9999522	-0.0034084257	0.0013237195	0.36	0	-1.3764343e-05
1.1039597929123103e-09	0.999952	-0.00345393	0.0012991525	0.36	0	-5.107941e-06
1.1190533014798962e-09	0.9999522	-0.003414793	0.0012663178	0.36	0	1.39751e-05
1.1336594790030492e-09	0.99995244	-0.0033578025	0.0012934547	0.36	0	4.704839e-06
1.148265997069638e-09	0.99995244	-0.0033891741	0.001336115	0.36	0	-1.3939215e-05
1.1628724744237944e-09	0.9999522	-0.003452801	0.0013218103	0.36	0	-5.023189e-06
1.1774788374670428e-09	0.9999522	-0.0034354334	0.0012808557	0.36	0	1.3896746e-05
1.192571994582347e-09	0.9999522	-0.0033789582	0.0012870856	0.36	0	4.614732e-06
1.207178449276015e-09	0.9999522	-0.0033968035	0.0013151022	0.36	0	-1.4115923e-05
1.221784859831423e-09	0.9999522	-0.0034406024	0.001303255	0.36	0	-4.9368296e-06
1.2363911748228196e-09	0.99995244	-0.0034131706	0.0012801107	0.36	0	1.4076664e-05
1.2514843135867292e-09	0.99995244	-0.0033659386	0.0013056082	0.36	0	4.5228026e-06
1.2660907468554784e-09	0.9999522	-0.0034044145	0.0013363594	0.36	0	-1.4294613e-05
1.280697122814701e-09	0.99995214	-0.0034621703	0.0013094186	0.36	0	-4.848569e-06
1.2953034005529042e-09	0.9999522	-0.003430299	0.0012663932	0.36	0	1.4258665e-05
1.3099098222750719e-09	0.99995244	-0.003365428	0.0012812474	0.36	0	5.1753827e-06
1.3250029138072408e-09	0.99995244	-0.0033860607	0.0013252529	0.36	0	-1.4475357e-05
1.339609228613651e-09	0.9999522	-0.0034425831	0.0013177298	0.36	0	-4.758421e-06
1.3542154830975106e-09	0.9999522	-0.003425076	0.0012874193	0.36	0	1.4442793e-05
1.3688218938437414e-09	0.9999523	-0.0033791445	0.0012979986	0.36	0	5.089009e-06
1.3834280007921893e-09	0.99995214	-0.0034052776	0.0013217787	0.36	0	-1.440332e-05
1.398521312270778e-09	0.9999522	-0.0034533395	0.0012985999	0.36	0	-4.666133e-06
1.4131275622881403e-09	0.99995244	-0.0034155394	0.0012675538	0.36	0	1.4629186e-05
1.4277340117153375e-09	0.99995244	-0.0033573743	0.0012942128	0.36	0	5.000424e-06
1.4423401188523728e-09	0.9999522	-0.003389833	0.0013371685	0.36	0	-1.4593194e-05
1.4569465224118629e-09	0.999952	-0.0034555711	0.001321522	0.36	0	-5.3359754e-06
1.4720396691323318e-09	0.9999522	-0.0034347125	0.0012767542	0.36	0	1.4817921e-05
1.486646132344416e-09	0.99995244	-0.0033759738	0.0012839824	0.36	0	4.9096448e-06
1.50125226141085e-09	0.9999522	-0.0033928563	0.0013156474	0.36	0	-1.4785497e-05
1.5158586573324106e-09	0.9999522	-0.0034399715	0.0013062415	0.36	0	-5.2490777e-06
1.5304650815992536e-09	0.99995244	-0.0034147014	0.00128267	0.36	0	1.4746163e-05
1.5455582703117902e-09	0.99995244	-0.0033670464	0.0013044351	0.36	0	4.816594e-06
1.5601643844372652e-09	0.9999522	-0.0034047216	0.0013348025	0.36	0	-1.4980273e-05
1.5747707631527557e-09	0.999952	-0.003462615	0.0013075505	0.36	0	-5.160021e-06
1.5893771777172483e-09	0.9999522	-0.0034285635	0.0012649853	0.36	0	1.4944507e-05
1.6039832677177888e-09	0.9999526	-0.0033618417	0.0012824329	0.36	0	5.504489e-06
1.6190764491236241e-09	0.9999522	-0.0033838234	0.0013275628	0.36	0	-1.5177573e-05
1.633682816275597e-09	0.9999522	-0.003444683	0.0013204359	0.36	0	-5.068791e-06
1.6482892317401587e-09	0.9999522	-0.0034282054	0.001287554	0.36	0	1.5145477e-05
1.6628953482797382e-09	0.99995244	-0.0033799543	0.0012960907	0.36	0	5.4173124e-06
1.6775018063670499e-09	0.9999522	-0.003404749	0.0013194733	0.36	0	-1.5106058e-05
1.6925949181340363e-09	0.99995214	-0.0034513043	0.0012976662	0.36	0	-4.975169e-06
1.707201344877446e-09	0.99995244	-0.0034129992	0.001269029	0.36	0	1.5349206e-05
1.7218074639101733e-09	0.9999526	-0.0033559038	0.0012980085	0.36	0	5.327808e-06
1.7364138997380855e-09	0.9999522	-0.0033928666	0.0013402734	0.36	0	-1.5313495e-05
1.7510201432997308e-09	0.999952	-0.003461244	0.0013198025	0.36	0	-5.681394e-06
1.7661133997033551e-09	0.9999522	-0.003436406	0.0012731225	0.36	0	1.555571e-05
1.780719510621438e-09	0.99995244	-0.0033726469	0.0012812222	0.36	0	5.236089e-06
1.7953259544701756e-09	0.99995244	-0.0033892759	0.0013164429	0.36	0	-1.552382e-05
1.8099321899563555e-09	0.9999522	-0.0034398492	0.0013087532	0.36	0	-5.593977e-06
1.8245384274720378e-09	0.9999522	-0.0034158968	0.0012846059	0.36	0	1.5484484e-05
1.839631557889558e-09	0.99995244	-0.003369885	0.0013066118	0.36	0	5.141983e-06
1.8542380050742187e-09	0.9999522	-0.003408886	0.0013332412	0.36	0	-1.5737134e-05
1.868844258458729e-09	0.999952	-0.0034649882	0.0013021427	0.36	0	-5.5041855e-06
1.8834505054678912e-09	0.9999522	-0.0034244761	0.001260199	0.36	0	1.5701682e-05
1.8985436430608777e-09	0.9999526	-0.0033538674	0.0012858439	0.36	0	5.0453646e-06
1.9131500888733634e-09	0.99995244	-0.0033832188	0.0013341757	0.36	0	-1.5953554e-05
1.9277563381729204e-09	0.999952	-0.0034511199	0.0013237097	0.36	0	-5.411975e-06
1.942362583942195e-09	0.9999522	-0.003433612	0.0012843838	0.36	0	1.5922073e-05
1.956969052430738e-09	0.99995244	-0.0033788704	0.0012909978	0.36	0	5.779965e-06
1.9720621917126472e-09	0.9999522	-0.0034030096	0.0013163637	0.36	0	-1.6173164e-05
1.986668430917346e-09	0.99995214	-0.0034481178	0.0012968268	0.36	0	-5.317279e-06
2.0012746716523896e-09	0.9999523	-0.0034094711	0.0012714772	0.36	0	1.6145763e-05
2.0158811424900254e-09	0.9999525	-0.0033543042	0.001303652	0.36	0	5.6898534e-06
2.0304872679018656e-09	0.9999523	-0.003397631	0.0013447714	0.36	0	-1.6110786e-05
2.045580518854279e-09	0.999952	-0.0034697175	0.0013143633	0.36	0	-5.2200603e-06
2.0601867421842503e-09	0.9999522	-0.003435687	0.0012640152	0.36	0	1.6372835e-05
2.074793217588998e-09	0.9999525	-0.003363085	0.0012778067	0.36	0	5.597293e-06
2.0893993362075376e-09	0.99995244	-0.0033820884	0.0013223339	0.36	0	-1.6341999e-05
2.10400570777385e-09	0.9999522	-0.0034424483	0.0013168824	0.36	0	-5.9764366e-06
2.119098806237452e-09	0.9999522	-0.003420407	0.0012869522	0.36	0	1.6603404e-05
2.133705276468757e-09	0.99995244	-0.0033728897	0.0013039296	0.36	0	5.5022183e-06
2.1483113995940297e-09	0.9999522	-0.0034095182	0.0013291333	0.36	0	-1.657683e-05
2.1629177730304337e-09	0.99995214	-0.0034638871	0.0012979448	0.36	0	-5.886188e-06
2.177524142589711e-09	0.9999522	-0.0034195043	0.0012585362	0.36	0	1.6542519e-05
2.192617352319343e-09	0.9999526	-0.003346923	0.0012917845	0.36	0	5.404501e-06
2.2072234727386983e-09	0.99995244	-0.0033852693	0.0013434101	0.36	0	-1.681541e-05
2.2218298503432497e-09	0.999952	-0.003461866	0.0013260999	0.36	0	-5.793366e-06
2.236436219381153e-09	0.9999522	-0.003440813	0.0012767107	0.36	0	1.6785423e-05
2.2510423573598495e-09	0.99995244	-0.0033746087	0.0012815945	0.36	0	6.1839132e-06
2.2661355590689047e-09	0.99995244	-0.003394279	0.0013169528	0.36	0	-1.7057853e-05
2.2807419336070433e-09	0.9999522	-0.0034456123	0.0013032047	0.36	0	-5.69791e-06
2.295348320613949e-09	0.9999522	-0.0034123487	0.001277204	0.36	0	1.7032333e-05
2.309954467914351e-09	0.99995244	-0.0033585904	0.0013056309	0.36	0	6.0935176e-06
2.3245609303193685e-09	0.9999522	-0.0034024073	0.001342465	0.36	0	-1.6998682e-05
2.3396540271469125e-09	0.999952	-0.003473892	0.001308573	0.36	0	-5.5997357e-06
2.3542603930821246e-09	0.9999522	-0.0034322967	0.0012570815	0.36	0	1.7283348e-05
2.36886649973171e-09	0.99995244	-0.0033533408	0.0012777175	0.36	0	6.0006355e-06
2.3834729649605775e-09	0.99995244	-0.0033771906	0.0013305198	0.36	0	-1.7254197e-05
2.3980791647836707e-09	0.9999522	-0.0034484284	0.0013247983	0.36	0	-6.403047e-06
2.4131724192445114e-09	0.9999522	-0.003430289	0.0012848828	0.36	0	1.7538596e-05
2.427778548948299e-09	0.99995244	-0.0033746269	0.0012954917	0.36	0	5.9050167e-06
2.4423850043634773e-09	0.9999522	-0.003404255	0.0013228419	0.36	0	-1.7514121e-05
2.456991203500481e-09	0.9999522	-0.0034577595	0.0012978098	0.36	0	-6.312852e-06
2.471597447343471e-09	0.99995244	-0.0034152807	0.0012637532	0.36	0	1.7481289e-05
2.4866905915922066e-09	0.99995244	-0.0033462276	0.0012973604	0.36	0	5.806624e-06
2.501297062240974e-09	0.9999523	-0.0033902153	0.0013471346	0.36	0	-1.7778613e-05
2.5159032853720063e-09	0.99995214	-0.0034697347	0.001323135	0.36	0	-6.219867e-06
2.5305095501889058e-09	0.9999522	-0.0034421007	0.0012685938	0.36	0	1.775056e-05
2.5456027012685034e-09	0.99995244	-0.0033647974	0.0012776324	0.36	0	5.7052316e-06
2.5602091637817856e-09	0.99995244	-0.0033852877	0.0013202815	0.36	0	-1.8047846e-05
2.5748153897639317e-09	0.9999522	-0.003445387	0.001311662	0.36	0	-6.124046e-06
2.58942163892618e-09	0.9999523	-0.0034184668	0.0012824084	0.36	0	1.802469e-05
2.604028086734282e-09	0.99995244	-0.0033643858	0.0013044712	0.36	0	6.5450677e-06
2.6191212140944966e-09	0.9999522	-0.0034073908	0.0013372307	0.36	0	-1.8321925e-05
2.6337274263249963e-09	0.9999522	-0.0034718262	0.001302938	0.36	0	-6.025479e-06
2.6483336577770975e-09	0.9999523	-0.0034258165	0.0012559071	0.36	0	1.830381e-05
2.66294010122009e-09	0.99995244	-0.0033468953	0.0012835094	0.36	0	6.4523606e-06
2.6775462138644137e-09	0.9999522	-0.0033792006	0.0013387356	0.36	0	-1.8277211e-05
2.692639475885434e-09	0.9999522	-0.0034593928	0.0013261575	0.36	0	-5.923919e-06
2.707245719797722e-09	0.9999522	-0.0034369265	0.0012796676	0.36	0	1.8588182e-05
2.7218521820050005e-09	0.99995244	-0.003372139	0.001288153	0.36	0	6.356647e-06
2.7364582907092957e-09	0.9999522	-0.0033978515	0.001320356	0.36	0	-1.8566754e-05
2.75106467765077e-09	0.9999522	-0.0034541064	0.0013004604	0.36	0	-6.7922365e-06
2.7661577821983958e-09	0.9999523	-0.00341239	0.0012691701	0.36	0	1.8877963e-05
2.780764235810718e-09	0.99995244	-0.0033495135	0.0013025458	0.36	0	6.258018e-06
2.7953703480237416e-09	0.9999522	-0.003397197	0.0013468859	0.36	0	-1.8861869e-05
2.8099767217403617e-09	0.999952	-0.0034753587	0.0013158957	0.36	0	-6.6998205e-06
2.824583061357736e-09	0.9999522	-0.003438235	0.0012602938	0.36	0	1.883709e-05
2.839676253214958e-09	0.99995244	-0.0033552365	0.0012780869	0.36	0	6.1563974e-06
2.8542823530490387e-09	0.9999522	-0.0033814008	0.0013279213	0.36	0	-1.9162742e-05
2.8688887230390137e-09	0.99995214	-0.003451367	0.0013177736	0.36	0	-6.6045286e-06
2.8834950642673765e-09	0.9999523	-0.0034254687	0.0012813152	0.36	0	1.9143406e-05
2.898101201787049e-09	0.9999525	-0.003365166	0.0012996629	0.36	0	7.055333e-06
2.913194398947455e-09	0.9999522	-0.0034059796	0.0013320101	0.36	0	-1.9469655e-05
2.927800774858882e-09	0.999952	-0.0034689324	0.0012996818	0.36	0	-6.5060735e-06
2.9424071324319844e-09	0.99995244	-0.0034203075	0.0012568377	0.36	0	1.9455976e-05
2.9570132814849766e-09	0.9999526	-0.0033422753	0.0012901648	0.36	0	6.9634225e-06
2.971619768654621e-09	0.99995244	-0.0033832695	0.0013460986	0.36	0	-1.9433195e-05
2.9867128731763145e-09	0.999952	-0.0034692872	0.001323207	0.36	0	-6.4043547e-06
3.0013192286405715e-09	0.9999522	-0.0034387552	0.0012702802	0.36	0	1.9775009e-05
3.015925357930253e-09	0.9999525	-0.0033633148	0.0012830057	0.36	0	6.8684676e-06
3.0305318370388946e-09	0.9999522	-0.0033902095	0.0013245068	0.36	0	-1.975798e-05
3.045138031601357e-09	0.999952	-0.0034557674	0.0013073683	0.36	0	-7.335151e-06
3.0602312863732267e-09	0.99995244	-0.0034160598	0.0012715416	0.36	0	2.0100706e-05
3.074837444670388e-09	0.9999526	-0.0033510334	0.0013025891	0.36	0	6.770334e-06
3.0894439460104815e-09	0.9999522	-0.003399558	0.0013455123	0.36	0	-2.00897e-05
3.10405016109854e-09	0.999952	-0.003478311	0.0013114666	0.36	0	-7.2439743e-06
3.118656442669039e-09	0.9999522	-0.0034350862	0.0012553262	0.36	0	2.0069268e-05
3.1337495884910326e-09	0.9999526	-0.0033461333	0.0012814308	0.36	0	6.668807e-06
3.148356080784499e-09	0.9999523	-0.0033804397	0.0013371449	0.36	0	-2.0428619e-05
3.1629622926884045e-09	0.999952	-0.0034609523	0.0013220506	0.36	0	-7.1496524e-06
3.1775685692595127e-09	0.9999522	-0.0034329307	0.0012758558	0.36	0	2.0414318e-05
3.192661709330183e-09	0.9999526	-0.003361161	0.0012946897	0.36	0	6.563942e-06
3.2072681848369014e-09	0.9999522	-0.003400406	0.0013321502	0.36	0	-2.0774985e-05
3.2218744027302208e-09	0.999952	-0.0034687656	0.0013025872	0.36	0	-7.052125e-06
3.2364806791785924e-09	0.9999522	-0.0034211238	0.0012586063	0.36	0	2.0767062e-05
3.2510871196836938e-09	0.9999526	-0.0033411223	0.0012920952	0.36	0	7.5437747e-06
3.2661802836546266e-09	0.9999522	-0.003389492	0.0013493062	0.36	0	-2.1129126e-05
3.2807864881136734e-09	0.999952	-0.0034765806	0.0013210307	0.36	0	-6.9512826e-06
3.2953927566576816e-09	0.9999522	-0.003439714	0.0012630607	0.36	0	2.1127804e-05
3.309999193833008e-09	0.99995244	-0.0033550716	0.0012797612	0.36	0	7.450656e-06
3.324605318452229e-09	0.99995244	-0.0033841243	0.0013294602	0.36	0	-2.1116895e-05
3.3396985595678773e-09	0.999952	-0.0034610846	0.0013113396	0.36	0	-6.8469785e-06
3.3543048253801563e-09	0.9999523	-0.0034222729	0.0012704238	0.36	0	2.14969e-05
3.368911281467896e-09	0.9999526	-0.0033505214	0.0012984935	0.36	0	7.354168e-06
3.383517404209845e-09	0.9999523	-0.0033972405	0.001343615	0.36	0	-2.149281e-05
3.398123833517175e-09	0.999952	-0.0034785985	0.001310835	0.36	0	-7.865641e-06
3.4132169395721945e-09	0.9999522	-0.003430154	0.0012530527	0.36	0	2.1874748e-05
3.4278233810821243e-09	0.9999526	-0.0033407938	0.0012823949	0.36	0	7.254185e-06
3.442429520802458e-09	0.99995244	-0.0033794125	0.0013419727	0.36	0	-2.187774e-05
3.4570359471865216e-09	0.99995214	-0.0034672979	0.0013240981	0.36	0	-7.773912e-06
3.4716422834820847e-09	0.9999522	-0.0034370343	0.0012720029	0.36	0	2.1870957e-05
3.4867355252660346e-09	0.9999525	-0.0033565022	0.0012894263	0.36	0	7.150495e-06
3.501341654351853e-09	0.9999523	-0.0033949767	0.0013329381	0.36	0	-2.2272068e-05
3.5159480696133612e-09	0.999952	-0.0034694844	0.0013059119	0.36	0	-7.678737e-06
3.5305544071828466e-09	0.9999522	-0.0034229215	0.001260053	0.36	0	2.2272578e-05
3.5451605712507013e-09	0.99995244	-0.0033402	0.0012929803	0.36	0	8.211402e-06
3.5602537609719895e-09	0.99995244	-0.0033895515	0.0013505885	0.36	0	-2.2676177e-05
3.5748601641440567e-09	0.999952	-0.003480913	0.0013202068	0.36	0	-7.5800663e-06
3.5894665082803055e-09	0.9999522	-0.0034403377	0.0012593742	0.36	0	2.2684284e-05
3.6040726711502083e-09	0.99995244	-0.0033494337	0.0012787656	0.36	0	8.121661e-06
3.6186791650482433e-09	0.99995244	-0.0033814292	0.0013330205	0.36	0	-2.2682107e-05
3.6337722736259623e-09	0.99995214	-0.0034648646	0.0013153935	0.36	0	-7.4776553e-06
3.648378596517382e-09	0.9999522	-0.0034262193	0.0012699884	0.36	0	2.310655e-05
3.662984756667782e-09	0.99995244	-0.003349331	0.0012967924	0.36	0	8.028454e-06
3.677591252242649e-09	0.9999522	-0.0033967856	0.0013432362	0.36	0	-2.3112232e-05
3.6921974470810324e-09	0.999952	-0.0034812037	0.0013091066	0.36	0	-8.58355e-06
3.7072907213762427e-09	0.9999522	-0.0034293556	0.0012517433	0.36	0	2.3539898e-05
3.721896886373497e-09	0.9999525	-0.003335948	0.0012839758	0.36	0	7.931492e-06
3.736503373668305e-09	0.99995244	-0.0033793787	0.0013463428	0.36	0	-2.355379e-05
3.751109553411942e-09	0.99995214	-0.0034739696	0.001324716	0.36	0	-8.4963185e-06
3.765715841595599e-09	0.9999522	-0.0034397338	0.0012675017	0.36	0	2.3556988e-05
3.7808089688017016e-09	0.99995244	-0.0033525457	0.0012865285	0.36	0	7.8308485e-06
3.795415458855109e-09	0.9999523	-0.0033920591	0.0013338901	0.36	0	-2.4007257e-05
3.810021649598121e-09	0.9999522	-0.0034717142	0.0013066744	0.36	0	-8.405546e-06
3.82462795082283e-09	0.99995244	-0.0034228163	0.0012591702	0.36	0	2.401899e-05
3.839721071428257e-09	0.9999525	-0.0033358743	0.0012965495	0.36	0	7.726192e-06
3.854327559155687e-09	0.9999522	-0.0033914004	0.0013530194	0.36	0	-2.4473251e-05
3.868933751309727e-09	0.999952	-0.003487434	0.0013179559	0.36	0	-8.311041e-06
3.883540026584387e-09	0.9999522	-0.003440325	0.0012532289	0.36	0	2.449387e-05
3.898146461892797e-09	0.99995244	-0.0033408385	0.0012775299	0.36	0	8.901536e-06
3.913239634394549e-09	0.99995244	-0.0033806716	0.0013389684	0.36	0	-2.495235e-05
3.927845825083546e-09	0.99995214	-0.003470148	0.001318143	0.36	0	-8.212728e-06
3.942452105727106e-09	0.9999522	-0.0034294748	0.0012679112	0.36	0	2.4982299e-05
3.9570585525744615e-09	0.99995244	-0.0033460432	0.0012954528	0.36	0	8.813955e-06
3.971664680237062e-09	0.9999522	-0.0033960624	0.0013447551	0.36	0	-2.5001435e-05
3.9867579367562025e-09	0.999952	-0.0034858973	0.0013052798	0.36	0	-8.110259e-06
4.00136421903473e-09	0.9999523	-0.0034270976	0.0012478593	0.36	0	2.5484986e-05
4.015970659515674e-09	0.9999526	-0.003327665	0.0012861957	0.36	0	8.722557e-06
4.030576772816927e-09	0.9999522	-0.0033787598	0.0013541112	0.36	0	-2.5513818e-05
4.045183178197997e-09	0.9999519	-0.003484146	0.0013271178	0.36	0	-9.341821e-06
4.0602762561182795e-09	0.9999522	-0.0034410874	0.0012604111	0.36	0	2.6002554e-05
4.0748826721118165e-09	0.99995244	-0.0033455074	0.0012824434	0.36	0	8.627473e-06
4.0894887669098015e-09	0.9999522	-0.0033869601	0.0013368626	0.36	0	-2.604154e-05
4.10409518193131e-09	0.999952	-0.0034752951	0.0013098624	0.36	0	-9.258549e-06
4.1187014615518505e-09	0.99995244	-0.003425188	0.0012582861	0.36	0	2.6069494e-05
4.1337946777970354e-09	0.99995244	-0.003331582	0.0012986568	0.36	0	8.528286e-06
4.148400771392203e-09	0.9999522	-0.003393262	0.0013573383	0.36	0	-2.6585514e-05
4.163007178086801e-09	0.9999519	-0.0034963512	0.0013160715	0.36	0	-9.1715065e-06
4.177613479692355e-09	0.9999522	-0.0034414076	0.0012449283	0.36	0	2.6624139e-05
4.1922196381150575e-09	0.9999526	-0.003329979	0.0012745524	0.36	0	9.822046e-06
4.207312805235971e-09	0.9999523	-0.0033756883	0.0013474016	0.36	0	-2.7146627e-05
4.221919214789006e-09	0.999952	-0.003478729	0.0013242805	0.36	0	-9.080375e-06
4.236525504658602e-09	0.9999522	-0.0034370187	0.0012646085	0.36	0	2.7196458e-05
4.25113165363286e-09	0.9999526	-0.0033429696	0.0012900787	0.36	0	9.743917e-06
4.265738104957666e-09	0.9999522	-0.0033920798	0.0013440314	0.36	0	-2.7234679e-05
4.280831185468326e-09	0.999952	-0.0034893646	0.0013046769	0.36	0	-8.9852665e-06
4.295437464088436e-09	0.99995244	-0.003425965	0.0012449014	0.36	0	2.7787348e-05
4.310043609060536e-09	0.9999526	-0.0033197976	0.0012882968	0.36	0	9.662184e-06
4.324650075991083e-09	0.9999523	-0.003378416	0.0013616771	0.36	0	-2.783735e-05
4.339256240602781e-09	0.99995184	-0.003495124	0.00132906	0.36	0	-1.0346616e-05
4.3543494924559484e-09	0.9999522	-0.003446662	0.0012506889	0.36	0	2.8397984e-05
4.368955654351267e-09	0.9999526	-0.0033356634	0.0012751289	0.36	0	9.576214e-06
4.383562141125445e-09	0.99995244	-0.0033777598	0.0013405462	0.36	0	-2.8460454e-05
4.398168315327436e-09	0.999952	-0.003478146	0.0013168177	0.36	0	-1.027482e-05
4.412774630726281e-09	0.9999522	-0.0034303626	0.0012602597	0.36	0	2.8510929e-05
4.427867743164908e-09	0.9999526	-0.0033298552	0.0012973215	0.36	0	9.48593e-06
4.442474211991795e-09	0.9999522	-0.0033937574	0.0013577252	0.36	0	-2.9105062e-05
4.457080387295402e-09	0.99995184	-0.0035020881	0.001312996	0.36	0	-1.0199306e-05
4.4716867159164535e-09	0.9999522	-0.003439737	0.001238769	0.36	0	2.9168663e-05
4.486779842098044e-09	0.99995273	-0.0033160942	0.0012781377	0.36	0	9.391204e-06
4.501386335896185e-09	0.99995244	-0.003371363	0.0013575052	0.36	0	-2.9772487e-05
4.515992522777854e-09	0.9999519	-0.0034899397	0.0013307437	0.36	0	-1.0119667e-05
4.530598837879439e-09	0.9999522	-0.0034462034	0.001259521	0.36	0	2.9849965e-05
4.5452052621660215e-09	0.9999526	-0.003338674	0.0012825137	0.36	0	1.0857777e-05
4.560298427202533e-09	0.9999523	-0.0033892503	0.0013441556	0.36	0	-3.0464003e-05
4.5749046064936e-09	0.999952	-0.0034899649	0.001307657	0.36	0	-1.0036053e-05
4.589510917457237e-09	0.9999523	-0.0034261118	0.0012466694	0.36	0	3.0556173e-05
4.604117335375267e-09	0.9999526	-0.0033159226	0.0012923067	0.36	0	1.07905535e-05
4.618723448564313e-09	0.9999523	-0.003382167	0.0013665442	0.36	0	-3.0636285e-05
4.633816668019735e-09	0.99995184	-0.0035087513	0.0013231611	0.36	0	-9.948147e-06
4.648422979028103e-09	0.9999522	-0.0034481864	0.0012406239	0.36	0	3.1288855e-05
4.6630294056356125e-09	0.9999526	-0.0033226185	0.0012712775	0.36	0	1.0719553e-05
4.677635518349358e-09	0.99995244	-0.0033700287	0.0013483778	0.36	0	-3.1384596e-05
4.692241962898513e-09	0.999952	-0.0034858764	0.0013243068	0.36	0	-1.150278e-05
4.707335070203037e-09	0.9999522	-0.0034347605	0.0012580932	0.36	0	3.2049742e-05
4.7219415212423096e-09	0.9999526	-0.003328406	0.0012931118	0.36	0	1.0644395e-05
4.736547653909625e-09	0.9999523	-0.0033924535	0.0013556428	0.36	0	-3.2162145e-05
4.751154094999476e-09	0.9999519	-0.0035054402	0.0013092539	0.36	0	-1.1445879e-05
4.765760376543422e-09	0.9999522	-0.003435421	0.0012346929	0.36	0	3.2262422e-05
4.780853611114065e-09	0.9999526	-0.003305971	0.0012828106	0.36	0	1.0565084e-05
4.795459728639779e-09	0.99995244	-0.0033727507	0.0013676693	0.36	0	-3.297068e-05
4.810066161052823e-09	0.9999519	-0.0035051326	0.0013316658	0.36	0	-1.138566e-05
4.824672444535896e-09	0.9999522	-0.0034521513	0.0012483672	0.36	0	3.3088694e-05
4.839278645057634e-09	0.9999526	-0.003326578	0.0012752245	0.36	0	1.2219347e-05
4.854371817853997e-09	0.99995244	-0.0033805072	0.0013478718	0.36	0	-3.381237e-05
4.8689782723912855e-09	0.999952	-0.0034943998	0.0013131162	0.36	0	-1.132153e-05
4.8835845782067125e-09	0.9999522	-0.0034295646	0.0012471274	0.36	0	3.3949385e-05
4.89819077419946e-09	0.9999526	-0.0033117454	0.0012939558	0.36	0	1.2175793e-05
4.912797273888443e-09	0.9999522	-0.003384813	0.0013701242	0.36	0	-3.4073906e-05
4.927890411294728e-09	0.9999519	-0.0035186068	0.0013174784	0.36	0	-1.1253311e-05
4.942496717482027e-09	0.9999522	-0.0034452323	0.0012302733	0.36	0	3.4846784e-05
4.957102932483609e-09	0.9999526	-0.003305701	0.0012722454	0.36	0	1.2128989e-05
4.971709415967221e-09	0.99995244	-0.0033652603	0.0013620906	0.36	0	-3.499169e-05
4.986315571348298e-09	0.999952	-0.003501668	0.0013314818	0.36	0	-1.3019106e-05
5.001408822909292e-09	0.9999522	-0.0034435878	0.0012503511	0.36	0	3.578344e-05
5.016015021730591e-09	0.9999526	-0.0033198658	0.001285996	0.36	0	1.20791055e-05
5.030621507698493e-09	0.9999522	-0.0033859406	0.001357723	0.36	0	-3.5950172e-05
5.045227657624904e-09	0.999952	-0.0035110202	0.0013110405	0.36	0	-1.2992662e-05
5.0598339928805395e-09	0.9999522	-0.0034360061	0.0012317492	0.36	0	3.6104175e-05
5.074927099789818e-09	0.9999526	-0.0032959385	0.0012875102	0.36	0	1.2025726e-05
5.089533587584449e-09	0.9999523	-0.0033753582	0.0013776534	0.36	0	-3.6952395e-05
5.104139746740814e-09	0.9999519	-0.003522551	0.0013301824	0.36	0	-1.296371e-05
5.118746097333239e-09	0.9999522	-0.003456349	0.001233821	0.36	0	3.71301e-05
5.133839209726509e-09	0.9999526	-0.0033071528	0.0012726033	0.36	0	1.1968445e-05
5.148445697656449e-09	0.99995244	-0.0033713188	0.0013592696	0.36	0	-3.8001708e-05
5.1630518589772825e-09	0.999952	-0.00350683	0.0013219735	0.36	0	-1.2932008e-05
5.177658195520104e-09	0.9999522	-0.0034391852	0.0012426529	0.36	0	3.820489e-05
5.192264611322814e-09	0.9999526	-0.0033047514	0.0012886962	0.36	0	1.3913731e-05
5.207357813252769e-09	0.9999522	-0.0033876833	0.0013730789	0.36	0	-3.910171e-05
5.221963995875203e-09	0.9999519	-0.0035286404	0.0013154013	0.36	0	-1.2897368e-05
5.23657034656377e-09	0.9999522	-0.003444356	0.0012216528	0.36	0	3.9332455e-05
5.251176775916953e-09	0.9999526	-0.0032891796	0.001273516	0.36	0	1.3907111e-05
5.265782916586578e-09	0.9999523	-0.003361682	0.0013757781	0.36	0	-3.9551276e-05
5.280876146303079e-09	0.9999519	-0.0035228897	0.0013322949	0.36	0	-1.2859636e-05
5.295482480768383e-09	0.9999522	-0.0034528382	0.0012367273	0.36	0	4.0516927e-05
5.310088890192908e-09	0.9999526	-0.0033044547	0.001276334	0.36	0	1.389907e-05
5.324695008362864e-09	0.9999522	-0.0033744157	0.0013641984	0.36	0	-4.0765844e-05
5.339301472273199e-09	0.9999519	-0.0035197367	0.0013185457	0.36	0	-1.4961085e-05
5.354394570890974e-09	0.9999522	-0.0034356925	0.0012278653	0.36	0	4.1762964e-05
5.369000977223063e-09	0.9999526	-0.00328596	0.0012864951	0.36	0	1.3889426e-05
5.3836071009277055e-09	0.9999522	-0.0033741414	0.0013844497	0.36	0	-4.2044612e-05
5.3982135566836045e-09	0.99995184	-0.0035376372	0.0013291286	0.36	0	-1.4984198e-05
5.4128198109668605e-09	0.9999522	-0.0034589367	0.0012216715	0.36	0	4.2315176e-05
5.427913050041499e-09	0.9999526	-0.0032864735	0.0012695909	0.36	0	1.3878017e-05
5.442519183473762e-09	0.9999522	-0.003362967	0.0013735902	0.36	0	-4.3393095e-05
5.457125654393839e-09	0.9999519	-0.0035245332	0.0013307414	0.36	0	-1.500721e-05
5.47173191443205e-09	0.9999523	-0.0034507283	0.0012340563	0.36	0	4.369992e-05