# OOMMF: rectangular mesh v1.0
# Segment count: 1
# Begin: Segment
# Begin: Header
# Desc: Time (s) :  6.4127883549199524e-09
# Title: m
# meshtype: rectangular
# meshunit: m
# xbase: 2.5e-09
# ybase: 2.5e-09
# zbase: 2.25e-08
# xstepsize: 5e-09
# ystepsize: 5e-09
# zstepsize: 4.5e-08
# xmin: 0
# ymin: 0
# zmin: 0
# xmax: 8e-08
# ymax: 1.6e-07
# zmax: 4.5e-08
# xnodes: 16
# ynodes: 32
# znodes: 1
# ValueRangeMinMag: 1e-08
# ValueRangeMaxMag: 1
# valueunit: 
# valuemultiplier: 1
# End: Header
# Begin: Data Text
0 0 0 
0 0 0 
0 0 0 
0 0 0 
0 0 0 
0 0 0 
0 0 0 
0 0 0 
0 0 0 
0 0 0 
0 0 0 
0 0 0 
0 0 0 
0 0 0 
0 0 0 
0 0 0 
0 0 0 
0 0 0 
0 0 0 
0 0 0 
0 0 0 
0 0 0 
0 0 0 
0 0 0 
0 0 0 
0 0 0 
0 0 0 
0 0 0 
0 0 0 
0 0 0 
0 0 0 
0 0 0 
0 0 0 
0 0 0 
0 0 0 
0 0 0 
0 0 0 
0 0 0 
0 0 0 
0 0 0 
0 0 0 
0 0 0 
0 0 0 
0 0 0 
0 0 0 
0 0 0 
0 0 0 
0 0 0 
0 0 0 
0 0 0 
0 0 0 
0 0 0 
0 0 0 
0 0 0 
0 0 0 
0 0 0 
0 0 0 
0 0 0 
0 0 0 
0 0 0 
0 0 0 
0 0 0 
0 0 0 
0 0 0 
0 0 0 
0 0 0 
0 0 0 
0 0 0 
0 0 0 
0 0 0 
0 0 0 
0 0 0 
0 0 0 
0 0 0 
0 0 0 
0 0 0 
0 0 0 
0 0 0 
0 0 0 
0 0 0 
0 0 0 
0 0 0 
0 0 0 
0 0 0 
0 0 0 
0 0 0 
0 0 0 
0 0 0 
0 0 0 
0 0 0 
0 0 0 
0 0 0 
0 0 0 
0 0 0 
0 0 0 
0 0 0 
0 0 0 
0 0 0 
0 0 0 
0 0 0 
0 0 0 
0 0 0 
0.8559086 0.51688945 0.015682146 
0.8576138 0.5140473 0.015930863 
0.8601258 0.50983024 0.01602554 
0 0 0 
0 0 0 
0 0 0 
0 0 0 
0 0 0 
0 0 0 
0 0 0 
0 0 0 
0 0 0 
0 0 0 
0 0 0 
0 0 0 
0.8648573 0.5017838 0.015328347 
0.8627765 0.50534374 0.015636165 
0.86255926 0.5057073 0.015862875 
0.8644799 0.50241184 0.016027322 
0.86900264 0.49454474 0.016126756 
0 0 0 
0 0 0 
0 0 0 
0 0 0 
0 0 0 
0 0 0 
0 0 0 
0 0 0 
0 0 0 
0 0 0 
0.8776612 0.47906047 0.01455258 
0.8688326 0.49487284 0.0151965795 
0.8651221 0.50132024 0.01554978 
0.8638379 0.50352204 0.015799211 
0.86420727 0.50288194 0.015985347 
0.86562634 0.5004299 0.016151913 
0 0 0 
0 0 0 
0 0 0 
0 0 0 
0 0 0 
0 0 0 
0 0 0 
0 0 0 
0 0 0 
0 0 0 
0.8787726 0.47701612 0.014636344 
0.86860746 0.49526513 0.015283689 
0.86451125 0.5023715 0.015599265 
0.8628256 0.50525457 0.015810082 
0.86248666 0.5058272 0.015992224 
0.86243546 0.5059107 0.016110517 
0 0 0 
0 0 0 
0 0 0 
0 0 0 
0 0 0 
0 0 0 
0 0 0 
0 0 0 
0 0 0 
0 0 0 
0 0 0 
0.864754 0.50195116 0.015670393 
0.86222655 0.5062775 0.015766704 
0.86065 0.5089481 0.015919592 
0.8603485 0.5094541 0.016034922 
0.8617644 0.5070552 0.016035525 
0 0 0 
0 0 0 
0 0 0 
0 0 0 
0 0 0 
0 0 0 
0 0 0 
0 0 0 
0 0 0 
0 0 0 
0 0 0 
0.8633117 0.50442547 0.015745793 
0.86041117 0.50935215 0.015911287 
0.8582755 0.5129391 0.016021913 
0.8556309 0.5173368 0.016073795 
0 0 0 
0 0 0 
0 0 0 
0 0 0 
0 0 0 
0 0 0 
0 0 0 
0 0 0 
0 0 0 
0 0 0 
0 0 0 
0 0 0 
0 0 0 
0 0 0 
0 0 0 
0 0 0 
0 0 0 
0 0 0 
0 0 0 
0 0 0 
0 0 0 
0 0 0 
0 0 0 
0 0 0 
0 0 0 
0 0 0 
0 0 0 
0 0 0 
0 0 0 
0 0 0 
0 0 0 
0 0 0 
0 0 0 
0 0 0 
0 0 0 
0 0 0 
0 0 0 
0 0 0 
0 0 0 
0 0 0 
0 0 0 
0 0 0 
0 0 0 
0 0 0 
0 0 0 
0.8400435 0.54227936 0.016124105 
0.8413317 0.5402798 0.016082847 
0.84291494 0.53780055 0.016278744 
0 0 0 
0 0 0 
0 0 0 
0 0 0 
0 0 0 
0 0 0 
0 0 0 
0 0 0 
0 0 0 
0 0 0 
0 0 0 
0 0 0 
0.85703844 0.5150114 0.015760202 
0.8523614 0.52271694 0.01572128 
0.85142773 0.5242181 0.016317708 
0.85324913 0.5212606 0.01591624 
0.8597182 0.5105149 0.016100433 
0 0 0 
0 0 0 
0 0 0 
0 0 0 
0 0 0 
0 0 0 
0 0 0 
0 0 0 
0 0 0 
0 0 0 
0.873616 0.4863859 0.014962923 
0.86433554 0.50268435 0.015248673 
0.8591845 0.5114127 0.016095819 
0.8574696 0.5143022 0.015464612 
0.85774547 0.51381946 0.016199386 
0.86067855 0.5089048 0.015757872 
0 0 0 
0 0 0 
0 0 0 
0 0 0 
0 0 0 
0 0 0 
0 0 0 
0 0 0 
0 0 0 
0 0 0 
0.87608373 0.48192942 0.014880339 
0.86774373 0.49676484 0.015668707 
0.8630008 0.50497264 0.015240195 
0.86021906 0.50966877 0.0161514 
0.8606866 0.5089035 0.015355086 
0.8644133 0.5025384 0.01564651 
0.87862456 0.47728914 0.014629751 
0 0 0 
0 0 0 
0 0 0 
0 0 0 
0 0 0 
0 0 0 
0 0 0 
0 0 0 
0 0 0 
0.8787419 0.47705942 0.015065896 
0.86997056 0.4928668 0.015286922 
0.8641721 0.502943 0.015969984 
0.8605665 0.5091056 0.015391128 
0.8598222 0.5103448 0.01594262 
0.8601528 0.50980324 0.015424524 
0 0 0 
0 0 0 
0 0 0 
0 0 0 
0 0 0 
0 0 0 
0 0 0 
0 0 0 
0 0 0 
0 0 0 
0 0 0 
0.8684688 0.49549296 0.0157707 
0.86398 0.50328183 0.015688227 
0.85646546 0.51595587 0.016018797 
0.85741407 0.5143916 0.015566529 
0.8565363 0.51585764 0.01537239 
0 0 0 
0 0 0 
0 0 0 
0 0 0 
0 0 0 
0 0 0 
0 0 0 
0 0 0 
0 0 0 
0 0 0 
0 0 0 
0 0 0 
0 0 0 
0.8408382 0.54105127 0.015965203 
0 0 0 
0 0 0 
0 0 0 
0 0 0 
0 0 0 
0 0 0 
0 0 0 
0 0 0 
0 0 0 
0 0 0 
0 0 0 
0 0 0 
0 0 0 
0 0 0 
0 0 0 
0 0 0 
0 0 0 
0 0 0 
0 0 0 
0 0 0 
0 0 0 
0 0 0 
0 0 0 
0 0 0 
0 0 0 
0 0 0 
0 0 0 
0 0 0 
0 0 0 
0 0 0 
0 0 0 
0 0 0 
0 0 0 
0 0 0 
0 0 0 
0 0 0 
0 0 0 
0 0 0 
0 0 0 
0 0 0 
0 0 0 
0 0 0 
0 0 0 
0 0 0 
0 0 0 
0 0 0 
0 0 0 
0 0 0 
0 0 0 
0 0 0 
0 0 0 
0 0 0 
0 0 0 
0 0 0 
0 0 0 
0 0 0 
0 0 0 
0 0 0 
0 0 0 
0 0 0 
0.86293054 0.5052753 0.0069088344 
0.8644088 0.50274175 0.006940007 
0.86667514 0.49882227 0.007108086 
0.8694603 0.49395344 0.0069953026 
0 0 0 
0 0 0 
0 0 0 
0 0 0 
0 0 0 
0 0 0 
0 0 0 
0 0 0 
0 0 0 
0 0 0 
0 0 0 
0.8749163 0.48422733 0.006735395 
0.8705553 0.49202406 0.006776044 
0.86997974 0.49303564 0.0071497657 
0.87073904 0.49169782 0.0068406896 
0.8738386 0.48616445 0.007095379 
0.88054436 0.47391477 0.0068177446 
0 0 0 
0 0 0 
0 0 0 
0 0 0 
0 0 0 
0 0 0 
0 0 0 
0 0 0 
0 0 0 
0 0 0 
0.8786532 0.47741315 0.006737031 
0.87486404 0.48431697 0.007077213 
0.8729391 0.48778284 0.0067312815 
0.87270933 0.48818696 0.0072044507 
0.8742986 0.48534128 0.006771268 
0.8788323 0.4770808 0.0069065485 
0 0 0 
0 0 0 
0 0 0 
0 0 0 
0 0 0 
0 0 0 
0 0 0 
0 0 0 
0 0 0 
0 0 0 
0.88234854 0.47054577 0.006901742 
0.8771352 0.48019603 0.006766426 
0.87423956 0.4854414 0.007200795 
0.8729024 0.48784858 0.0067319535 
0.87340593 0.48694158 0.007082286 
0.87628424 0.48174748 0.0067424877 
0 0 0 
0 0 0 
0 0 0 
0 0 0 
0 0 0 
0 0 0 
0 0 0 
0 0 0 
0 0 0 
0 0 0 
0.88506204 0.4654232 0.0068148016 
0.8780182 0.4785749 0.0070906077 
0.87370247 0.4864128 0.006836983 
0.87132984 0.49064562 0.0071495003 
0.8703563 0.4923758 0.0067786556 
0.873387 0.48698032 0.006743279 
0 0 0 
0 0 0 
0 0 0 
0 0 0 
0 0 0 
0 0 0 
0 0 0 
0 0 0 
0 0 0 
0 0 0 
0 0 0 
0.8747261 0.48456714 0.0069938987 
0.8707585 0.49165952 0.0071064546 
0.86683583 0.4985453 0.0069388906 
0.86401093 0.5034257 0.00690915 
0 0 0 
0 0 0 
0 0 0 
0 0 0 
0 0 0 
0 0 0 
0 0 0 
0 0 0 
0 0 0 
0 0 0 
0 0 0 
0 0 0 
0 0 0 
0 0 0 
0 0 0 
0 0 0 
0 0 0 
0 0 0 
0 0 0 
0 0 0 
0 0 0 
0 0 0 
0 0 0 
0 0 0 
0 0 0 
0 0 0 
0 0 0 
0 0 0 
0 0 0 
0 0 0 
0 0 0 
0 0 0 
0 0 0 
0 0 0 
0 0 0 
0 0 0 
0 0 0 
0 0 0 
0 0 0 
0 0 0 
# End: Data Text
# End: Segment
