# OOMMF: rectangular mesh v1.0
# Segment count: 1
# Begin: Segment
# Begin: Header
# Desc: Time (s) :  1.1809981011046142e-08
# Title: m
# meshtype: rectangular
# meshunit: m
# xbase: 2.5e-09
# ybase: 2.5e-09
# zbase: 2.25e-08
# xstepsize: 5e-09
# ystepsize: 5e-09
# zstepsize: 4.5e-08
# xmin: 0
# ymin: 0
# zmin: 0
# xmax: 8e-08
# ymax: 1.6e-07
# zmax: 4.5e-08
# xnodes: 16
# ynodes: 32
# znodes: 1
# ValueRangeMinMag: 1e-08
# ValueRangeMaxMag: 1
# valueunit: 
# valuemultiplier: 1
# End: Header
# Begin: Data Text
0 0 0 
0 0 0 
0 0 0 
0 0 0 
0 0 0 
0 0 0 
0 0 0 
0 0 0 
0 0 0 
0 0 0 
0 0 0 
0 0 0 
0 0 0 
0 0 0 
0 0 0 
0 0 0 
0 0 0 
0 0 0 
0 0 0 
0 0 0 
0 0 0 
0 0 0 
0 0 0 
0 0 0 
0 0 0 
0 0 0 
0 0 0 
0 0 0 
0 0 0 
0 0 0 
0 0 0 
0 0 0 
0 0 0 
0 0 0 
0 0 0 
0 0 0 
0 0 0 
0 0 0 
0 0 0 
0 0 0 
0 0 0 
0 0 0 
0 0 0 
0 0 0 
0 0 0 
0 0 0 
0 0 0 
0 0 0 
0 0 0 
0 0 0 
0 0 0 
0 0 0 
0 0 0 
0 0 0 
0 0 0 
0 0 0 
0 0 0 
0 0 0 
0 0 0 
0 0 0 
0 0 0 
0 0 0 
0 0 0 
0 0 0 
0 0 0 
0 0 0 
0 0 0 
0 0 0 
0 0 0 
0 0 0 
0 0 0 
0 0 0 
0 0 0 
0 0 0 
0 0 0 
0 0 0 
0 0 0 
0 0 0 
0 0 0 
0 0 0 
0 0 0 
0 0 0 
0 0 0 
0 0 0 
0 0 0 
0 0 0 
0 0 0 
0 0 0 
0 0 0 
0 0 0 
0 0 0 
0 0 0 
0 0 0 
0 0 0 
0 0 0 
0 0 0 
0 0 0 
0 0 0 
0 0 0 
0 0 0 
0 0 0 
0 0 0 
0.863164 0.502144 0.052907895 
0.8649615 0.4989344 0.053908467 
0.867549 0.49436635 0.05441099 
0 0 0 
0 0 0 
0 0 0 
0 0 0 
0 0 0 
0 0 0 
0 0 0 
0 0 0 
0 0 0 
0 0 0 
0 0 0 
0 0 0 
0.87153804 0.48759776 0.051670883 
0.8697091 0.49073315 0.052792635 
0.869644 0.49074438 0.053752854 
0.8716139 0.487153 0.054507792 
0.87607795 0.47901618 0.05505536 
0 0 0 
0 0 0 
0 0 0 
0 0 0 
0 0 0 
0 0 0 
0 0 0 
0 0 0 
0 0 0 
0 0 0 
0.88377357 0.46532318 0.049179725 
0.87539744 0.4806704 0.05133636 
0.8719585 0.48674348 0.05262307 
0.870816 0.48868138 0.053573996 
0.8712515 0.48781535 0.054380003 
0.8726855 0.48516846 0.055060215 
0 0 0 
0 0 0 
0 0 0 
0 0 0 
0 0 0 
0 0 0 
0 0 0 
0 0 0 
0 0 0 
0 0 0 
0.884916 0.46310863 0.04953838 
0.8752633 0.48086563 0.05179179 
0.8713855 0.4877408 0.052879747 
0.86980855 0.4904609 0.053678982 
0.8695024 0.49092922 0.05435172 
0.86945534 0.49096015 0.054823864 
0 0 0 
0 0 0 
0 0 0 
0 0 0 
0 0 0 
0 0 0 
0 0 0 
0 0 0 
0 0 0 
0 0 0 
0 0 0 
0.8717384 0.48706582 0.053285513 
0.86924595 0.4914668 0.05359142 
0.867687 0.4941617 0.054069646 
0.867368 0.49467686 0.054476216 
0.86866367 0.492396 0.0544945 
0 0 0 
0 0 0 
0 0 0 
0 0 0 
0 0 0 
0 0 0 
0 0 0 
0 0 0 
0 0 0 
0 0 0 
0 0 0 
0.8705524 0.48913684 0.053699728 
0.8675931 0.49431482 0.054176424 
0.86538553 0.4981383 0.054463007 
0.86274433 0.5026864 0.054577716 
0 0 0 
0 0 0 
0 0 0 
0 0 0 
0 0 0 
0 0 0 
0 0 0 
0 0 0 
0 0 0 
0 0 0 
0 0 0 
0 0 0 
0 0 0 
0 0 0 
0 0 0 
0 0 0 
0 0 0 
0 0 0 
0 0 0 
0 0 0 
0 0 0 
0 0 0 
0 0 0 
0 0 0 
0 0 0 
0 0 0 
0 0 0 
0 0 0 
0 0 0 
0 0 0 
0 0 0 
0 0 0 
0 0 0 
0 0 0 
0 0 0 
0 0 0 
0 0 0 
0 0 0 
0 0 0 
0 0 0 
0 0 0 
0 0 0 
0 0 0 
0 0 0 
0 0 0 
0.8324459 0.55408746 0.0045572184 
0.83351153 0.5524824 0.004670434 
0.83504474 0.5501638 0.004496471 
0 0 0 
0 0 0 
0 0 0 
0 0 0 
0 0 0 
0 0 0 
0 0 0 
0 0 0 
0 0 0 
0 0 0 
0 0 0 
0 0 0 
0.8501372 0.5265423 0.0044835717 
0.84497917 0.5347775 0.004831866 
0.84417796 0.5360456 0.004320665 
0.8456264 0.5337542 0.0047390903 
0.8523356 0.5229768 0.0044124993 
0 0 0 
0 0 0 
0 0 0 
0 0 0 
0 0 0 
0 0 0 
0 0 0 
0 0 0 
0 0 0 
0 0 0 
0.8672634 0.49783143 0.004270152 
0.8574059 0.51461905 0.0047283852 
0.8523368 0.52297634 0.004210035 
0.8500244 0.5267198 0.0049814545 
0.85067606 0.52567345 0.0042313794 
0.85338295 0.5212642 0.004623958 
0 0 0 
0 0 0 
0 0 0 
0 0 0 
0 0 0 
0 0 0 
0 0 0 
0 0 0 
0 0 0 
0 0 0 
0.8695853 0.49376303 0.004419691 
0.8610955 0.50842583 0.004225625 
0.85575813 0.5173523 0.004978795 
0.8533666 0.5212947 0.0041682543 
0.8533919 0.5212467 0.004926133 
0.85761297 0.5142777 0.0042993603 
0.8723292 0.48890114 0.0041969824 
0 0 0 
0 0 0 
0 0 0 
0 0 0 
0 0 0 
0 0 0 
0 0 0 
0 0 0 
0 0 0 
0.8722574 0.4890282 0.004288898 
0.8629753 0.50522393 0.0047222544 
0.8573053 0.5147903 0.004311556 
0.8532251 0.5215185 0.0050372793 
0.8529069 0.5220446 0.004416965 
0.85313904 0.521662 0.004750209 
0 0 0 
0 0 0 
0 0 0 
0 0 0 
0 0 0 
0 0 0 
0 0 0 
0 0 0 
0 0 0 
0 0 0 
0 0 0 
0.8613749 0.5079494 0.0045578815 
0.85673594 0.5157328 0.0048313555 
0.84924626 0.5279766 0.0046378123 
0.85024816 0.52635956 0.004877829 
0.84962773 0.5273625 0.004637166 
0 0 0 
0 0 0 
0 0 0 
0 0 0 
0 0 0 
0 0 0 
0 0 0 
0 0 0 
0 0 0 
0 0 0 
0 0 0 
0 0 0 
0 0 0 
0.83283526 0.55349815 0.0050162524 
0 0 0 
0 0 0 
0 0 0 
0 0 0 
0 0 0 
0 0 0 
0 0 0 
0 0 0 
0 0 0 
0 0 0 
0 0 0 
0 0 0 
0 0 0 
0 0 0 
0 0 0 
0 0 0 
0 0 0 
0 0 0 
0 0 0 
0 0 0 
0 0 0 
0 0 0 
0 0 0 
0 0 0 
0 0 0 
0 0 0 
0 0 0 
0 0 0 
0 0 0 
0 0 0 
0 0 0 
0 0 0 
0 0 0 
0 0 0 
0 0 0 
0 0 0 
0 0 0 
0 0 0 
0 0 0 
0 0 0 
0 0 0 
0 0 0 
0 0 0 
0 0 0 
0 0 0 
0 0 0 
0 0 0 
0 0 0 
0 0 0 
0 0 0 
0 0 0 
0 0 0 
0 0 0 
0 0 0 
0 0 0 
0 0 0 
0 0 0 
0 0 0 
0 0 0 
0 0 0 
0.8501925 0.5263894 -0.0093286475 
0.85139775 0.5244353 -0.0094701825 
0.853487 0.5210225 -0.009771655 
0.8561372 0.51665705 -0.009731117 
0 0 0 
0 0 0 
0 0 0 
0 0 0 
0 0 0 
0 0 0 
0 0 0 
0 0 0 
0 0 0 
0 0 0 
0 0 0 
0.86308783 0.5049703 -0.009188038 
0.85815114 0.5133137 -0.009262398 
0.8573754 0.5145999 -0.009723671 
0.85792345 0.5136905 -0.009459558 
0.8611553 0.5082478 -0.0097954655 
0.8682257 0.49607834 -0.009515476 
0 0 0 
0 0 0 
0 0 0 
0 0 0 
0 0 0 
0 0 0 
0 0 0 
0 0 0 
0 0 0 
0 0 0 
0.8667357 0.49868092 -0.009302187 
0.8626287 0.5057455 -0.00966779 
0.86039704 0.5095397 -0.00928561 
0.86026406 0.50975484 -0.009792821 
0.8618588 0.5070625 -0.009336808 
0.8667709 0.49861622 -0.009489263 
0 0 0 
0 0 0 
0 0 0 
0 0 0 
0 0 0 
0 0 0 
0 0 0 
0 0 0 
0 0 0 
0 0 0 
0.8703594 0.4923235 -0.009595798 
0.8647734 0.50207424 -0.009398889 
0.86187345 0.50702906 -0.009787776 
0.860436 0.5094754 -0.009209019 
0.86123574 0.50811625 -0.009530878 
0.8644149 0.5026963 -0.009134499 
0 0 0 
0 0 0 
0 0 0 
0 0 0 
0 0 0 
0 0 0 
0 0 0 
0 0 0 
0 0 0 
0 0 0 
0.8729199 0.48776966 -0.00957138 
0.86555415 0.50071985 -0.009784446 
0.86111504 0.5083238 -0.009378687 
0.85894305 0.51198167 -0.009573717 
0.8581428 0.513331 -0.00906293 
0.86169434 0.50734824 -0.008976187 
0 0 0 
0 0 0 
0 0 0 
0 0 0 
0 0 0 
0 0 0 
0 0 0 
0 0 0 
0 0 0 
0 0 0 
0 0 0 
0.8617525 0.50723714 -0.009648322 
0.85791016 0.51370937 -0.009635159 
0.85414594 0.5199508 -0.009272969 
0.85157096 0.52416056 -0.009093917 
0 0 0 
0 0 0 
0 0 0 
0 0 0 
0 0 0 
0 0 0 
0 0 0 
0 0 0 
0 0 0 
0 0 0 
0 0 0 
0 0 0 
0 0 0 
0 0 0 
0 0 0 
0 0 0 
0 0 0 
0 0 0 
0 0 0 
0 0 0 
0 0 0 
0 0 0 
0 0 0 
0 0 0 
0 0 0 
0 0 0 
0 0 0 
0 0 0 
0 0 0 
0 0 0 
0 0 0 
0 0 0 
0 0 0 
0 0 0 
0 0 0 
0 0 0 
0 0 0 
0 0 0 
0 0 0 
0 0 0 
# End: Data Text
# End: Segment
