# OOMMF: rectangular mesh v1.0
# Segment count: 1
# Begin: Segment
# Begin: Header
# Desc: Time (s) :  2.942478807454188e-09
# Title: m
# meshtype: rectangular
# meshunit: m
# xbase: 2.5e-09
# ybase: 2.5e-09
# zbase: 2.25e-08
# xstepsize: 5e-09
# ystepsize: 5e-09
# zstepsize: 4.5e-08
# xmin: 0
# ymin: 0
# zmin: 0
# xmax: 8e-08
# ymax: 1.6e-07
# zmax: 4.5e-08
# xnodes: 16
# ynodes: 32
# znodes: 1
# ValueRangeMinMag: 1e-08
# ValueRangeMaxMag: 1
# valueunit: 
# valuemultiplier: 1
# End: Header
# Begin: Data Text
0 0 0 
0 0 0 
0 0 0 
0 0 0 
0 0 0 
0 0 0 
0 0 0 
0 0 0 
0 0 0 
0 0 0 
0 0 0 
0 0 0 
0 0 0 
0 0 0 
0 0 0 
0 0 0 
0 0 0 
0 0 0 
0 0 0 
0 0 0 
0 0 0 
0 0 0 
0 0 0 
0 0 0 
0 0 0 
0 0 0 
0 0 0 
0 0 0 
0 0 0 
0 0 0 
0 0 0 
0 0 0 
0 0 0 
0 0 0 
0 0 0 
0 0 0 
0 0 0 
0 0 0 
0 0 0 
0 0 0 
0 0 0 
0 0 0 
0 0 0 
0 0 0 
0 0 0 
0 0 0 
0 0 0 
0 0 0 
0 0 0 
0 0 0 
0 0 0 
0 0 0 
0 0 0 
0 0 0 
0 0 0 
0 0 0 
0 0 0 
0 0 0 
0 0 0 
0 0 0 
0 0 0 
0 0 0 
0 0 0 
0 0 0 
0 0 0 
0 0 0 
0 0 0 
0 0 0 
0 0 0 
0 0 0 
0 0 0 
0 0 0 
0 0 0 
0 0 0 
0 0 0 
0 0 0 
0 0 0 
0 0 0 
0 0 0 
0 0 0 
0 0 0 
0 0 0 
0 0 0 
0 0 0 
0 0 0 
0 0 0 
0 0 0 
0 0 0 
0 0 0 
0 0 0 
0 0 0 
0 0 0 
0 0 0 
0 0 0 
0 0 0 
0 0 0 
0 0 0 
0 0 0 
0 0 0 
0 0 0 
0 0 0 
0 0 0 
0.8558727 0.5169457 0.015787093 
0.8575758 0.5141073 0.016046362 
0.8600886 0.5098895 0.016134724 
0 0 0 
0 0 0 
0 0 0 
0 0 0 
0 0 0 
0 0 0 
0 0 0 
0 0 0 
0 0 0 
0 0 0 
0 0 0 
0 0 0 
0.86482453 0.5018372 0.015427022 
0.86273783 0.505406 0.015756007 
0.8625272 0.5057591 0.01595776 
0.8644402 0.5024762 0.01615296 
0.868967 0.49460357 0.01624001 
0 0 0 
0 0 0 
0 0 0 
0 0 0 
0 0 0 
0 0 0 
0 0 0 
0 0 0 
0 0 0 
0 0 0 
0.8776313 0.4791125 0.014645377 
0.86879635 0.49493307 0.015309466 
0.86509323 0.50136745 0.015636584 
0.8637969 0.5035885 0.015931454 
0.8641752 0.50293416 0.01608078 
0.8655877 0.5004929 0.016272908 
0 0 0 
0 0 0 
0 0 0 
0 0 0 
0 0 0 
0 0 0 
0 0 0 
0 0 0 
0 0 0 
0 0 0 
0.87874126 0.4770711 0.014734706 
0.8685767 0.4953163 0.015372866 
0.8644712 0.50243634 0.015727678 
0.86279565 0.5053028 0.015897395 
0.8624456 0.505893 0.016122673 
0.86240065 0.5059664 0.016218385 
0 0 0 
0 0 0 
0 0 0 
0 0 0 
0 0 0 
0 0 0 
0 0 0 
0 0 0 
0 0 0 
0 0 0 
0 0 0 
0.8647165 0.5020124 0.015784062 
0.8621947 0.50632864 0.015861053 
0.8606095 0.50901276 0.0160464 
0.86031497 0.50950754 0.016135175 
0.8617271 0.5071149 0.01615258 
0 0 0 
0 0 0 
0 0 0 
0 0 0 
0 0 0 
0 0 0 
0 0 0 
0 0 0 
0 0 0 
0 0 0 
0 0 0 
0.86327493 0.504485 0.015854612 
0.8603731 0.50941265 0.01602743 
0.85823995 0.51299536 0.016127318 
0.85559285 0.51739615 0.016189499 
0 0 0 
0 0 0 
0 0 0 
0 0 0 
0 0 0 
0 0 0 
0 0 0 
0 0 0 
0 0 0 
0 0 0 
0 0 0 
0 0 0 
0 0 0 
0 0 0 
0 0 0 
0 0 0 
0 0 0 
0 0 0 
0 0 0 
0 0 0 
0 0 0 
0 0 0 
0 0 0 
0 0 0 
0 0 0 
0 0 0 
0 0 0 
0 0 0 
0 0 0 
0 0 0 
0 0 0 
0 0 0 
0 0 0 
0 0 0 
0 0 0 
0 0 0 
0 0 0 
0 0 0 
0 0 0 
0 0 0 
0 0 0 
0 0 0 
0 0 0 
0 0 0 
0 0 0 
0.83999604 0.5423529 0.01612454 
0.8413186 0.54029447 0.016280716 
0.84286904 0.53787214 0.016288878 
0 0 0 
0 0 0 
0 0 0 
0 0 0 
0 0 0 
0 0 0 
0 0 0 
0 0 0 
0 0 0 
0 0 0 
0 0 0 
0 0 0 
0.85698813 0.51509625 0.01572183 
0.85238105 0.5226731 0.016110154 
0.85133404 0.524379 0.016031193 
0.8532645 0.52122456 0.01627294 
0.8596737 0.51058984 0.016096074 
0 0 0 
0 0 0 
0 0 0 
0 0 0 
0 0 0 
0 0 0 
0 0 0 
0 0 0 
0 0 0 
0 0 0 
0.8735758 0.48645824 0.014955732 
0.8643557 0.5026381 0.01563317 
0.85907066 0.5116171 0.01566917 
0.85753053 0.51418114 0.016098235 
0.8576433 0.51400095 0.015843693 
0.8606765 0.5089006 0.016005512 
0 0 0 
0 0 0 
0 0 0 
0 0 0 
0 0 0 
0 0 0 
0 0 0 
0 0 0 
0 0 0 
0 0 0 
0.87607366 0.48194173 0.0150695555 
0.8676557 0.49692762 0.01537781 
0.863061 0.50485027 0.015871357 
0.86009055 0.50990224 0.015622453 
0.8607355 0.50880384 0.015910078 
0.86434543 0.50266063 0.015474177 
0.8786054 0.47732106 0.014733688 
0 0 0 
0 0 0 
0 0 0 
0 0 0 
0 0 0 
0 0 0 
0 0 0 
0 0 0 
0 0 0 
0.87870276 0.47713158 0.01506676 
0.8699851 0.49282992 0.015638402 
0.86407274 0.5031249 0.015612978 
0.86061543 0.50900567 0.015947709 
0.85973287 0.51050436 0.015647827 
0.8601485 0.5098037 0.015647352 
0 0 0 
0 0 0 
0 0 0 
0 0 0 
0 0 0 
0 0 0 
0 0 0 
0 0 0 
0 0 0 
0 0 0 
0 0 0 
0.8684259 0.4955683 0.015764913 
0.8639776 0.50327814 0.01593491 
0.85639423 0.5160794 0.01584742 
0.8574099 0.51439196 0.015791206 
0.85649794 0.515921 0.0153857125 
0 0 0 
0 0 0 
0 0 0 
0 0 0 
0 0 0 
0 0 0 
0 0 0 
0 0 0 
0 0 0 
0 0 0 
0 0 0 
0 0 0 
0 0 0 
0.8408119 0.5410885 0.016078763 
0 0 0 
0 0 0 
0 0 0 
0 0 0 
0 0 0 
0 0 0 
0 0 0 
0 0 0 
0 0 0 
0 0 0 
0 0 0 
0 0 0 
0 0 0 
0 0 0 
0 0 0 
0 0 0 
0 0 0 
0 0 0 
0 0 0 
0 0 0 
0 0 0 
0 0 0 
0 0 0 
0 0 0 
0 0 0 
0 0 0 
0 0 0 
0 0 0 
0 0 0 
0 0 0 
0 0 0 
0 0 0 
0 0 0 
0 0 0 
0 0 0 
0 0 0 
0 0 0 
0 0 0 
0 0 0 
0 0 0 
0 0 0 
0 0 0 
0 0 0 
0 0 0 
0 0 0 
0 0 0 
0 0 0 
0 0 0 
0 0 0 
0 0 0 
0 0 0 
0 0 0 
0 0 0 
0 0 0 
0 0 0 
0 0 0 
0 0 0 
0 0 0 
0 0 0 
0 0 0 
0.86288375 0.505354 0.00700308 
0.8643803 0.5027893 0.0070517827 
0.86662304 0.49891144 0.007202545 
0.869425 0.49401385 0.007105765 
0 0 0 
0 0 0 
0 0 0 
0 0 0 
0 0 0 
0 0 0 
0 0 0 
0 0 0 
0 0 0 
0 0 0 
0 0 0 
0.87487334 0.48430368 0.0068272115 
0.8705399 0.4920496 0.006895536 
0.86990726 0.49316233 0.007224833 
0.8707321 0.49170834 0.006971905 
0.8737767 0.48627454 0.0071792374 
0.8805124 0.47397253 0.0069233314 
0 0 0 
0 0 0 
0 0 0 
0 0 0 
0 0 0 
0 0 0 
0 0 0 
0 0 0 
0 0 0 
0 0 0 
0.87862766 0.47745857 0.0068447343 
0.8747935 0.48444322 0.0071516894 
0.87294596 0.48776865 0.006872437 
0.872625 0.48833686 0.00726827 
0.8742928 0.48535004 0.006899598 
0.8787836 0.47716933 0.00699678 
0 0 0 
0 0 0 
0 0 0 
0 0 0 
0 0 0 
0 0 0 
0 0 0 
0 0 0 
0 0 0 
0 0 0 
0.8823005 0.47063476 0.0069924844 
0.8771293 0.4802047 0.0068959426 
0.87415546 0.4855918 0.0072658495 
0.8729105 0.48783207 0.0068716924 
0.87333554 0.48706672 0.0071542496 
0.8762586 0.48179233 0.0068488936 
0 0 0 
0 0 0 
0 0 0 
0 0 0 
0 0 0 
0 0 0 
0 0 0 
0 0 0 
0 0 0 
0 0 0 
0.88503057 0.4654815 0.006921982 
0.87795746 0.4786851 0.0071753864 
0.8736964 0.48642182 0.006967162 
0.8712585 0.49077144 0.0072223432 
0.8703421 0.4923994 0.0068949293 
0.87334436 0.4870554 0.006831982 
0 0 0 
0 0 0 
0 0 0 
0 0 0 
0 0 0 
0 0 0 
0 0 0 
0 0 0 
0 0 0 
0 0 0 
0 0 0 
0.8746914 0.4846283 0.007103952 
0.87070715 0.49174923 0.007200379 
0.86680835 0.49859154 0.0070489324 
0.86396617 0.5035011 0.0070013865 
0 0 0 
0 0 0 
0 0 0 
0 0 0 
0 0 0 
0 0 0 
0 0 0 
0 0 0 
0 0 0 
0 0 0 
0 0 0 
0 0 0 
0 0 0 
0 0 0 
0 0 0 
0 0 0 
0 0 0 
0 0 0 
0 0 0 
0 0 0 
0 0 0 
0 0 0 
0 0 0 
0 0 0 
0 0 0 
0 0 0 
0 0 0 
0 0 0 
0 0 0 
0 0 0 
0 0 0 
0 0 0 
0 0 0 
0 0 0 
0 0 0 
0 0 0 
0 0 0 
0 0 0 
0 0 0 
0 0 0 
# End: Data Text
# End: Segment
