# OOMMF: rectangular mesh v1.0
# Segment count: 1
# Begin: Segment
# Begin: Header
# Desc: Time (s) :  8.972071486014019e-09
# Title: m
# meshtype: rectangular
# meshunit: m
# xbase: 2.5e-09
# ybase: 2.5e-09
# zbase: 2.25e-08
# xstepsize: 5e-09
# ystepsize: 5e-09
# zstepsize: 4.5e-08
# xmin: 0
# ymin: 0
# zmin: 0
# xmax: 8e-08
# ymax: 1.6e-07
# zmax: 4.5e-08
# xnodes: 16
# ynodes: 32
# znodes: 1
# ValueRangeMinMag: 1e-08
# ValueRangeMaxMag: 1
# valueunit: 
# valuemultiplier: 1
# End: Header
# Begin: Data Text
0 0 0 
0 0 0 
0 0 0 
0 0 0 
0 0 0 
0 0 0 
0 0 0 
0 0 0 
0 0 0 
0 0 0 
0 0 0 
0 0 0 
0 0 0 
0 0 0 
0 0 0 
0 0 0 
0 0 0 
0 0 0 
0 0 0 
0 0 0 
0 0 0 
0 0 0 
0 0 0 
0 0 0 
0 0 0 
0 0 0 
0 0 0 
0 0 0 
0 0 0 
0 0 0 
0 0 0 
0 0 0 
0 0 0 
0 0 0 
0 0 0 
0 0 0 
0 0 0 
0 0 0 
0 0 0 
0 0 0 
0 0 0 
0 0 0 
0 0 0 
0 0 0 
0 0 0 
0 0 0 
0 0 0 
0 0 0 
0 0 0 
0 0 0 
0 0 0 
0 0 0 
0 0 0 
0 0 0 
0 0 0 
0 0 0 
0 0 0 
0 0 0 
0 0 0 
0 0 0 
0 0 0 
0 0 0 
0 0 0 
0 0 0 
0 0 0 
0 0 0 
0 0 0 
0 0 0 
0 0 0 
0 0 0 
0 0 0 
0 0 0 
0 0 0 
0 0 0 
0 0 0 
0 0 0 
0 0 0 
0 0 0 
0 0 0 
0 0 0 
0 0 0 
0 0 0 
0 0 0 
0 0 0 
0 0 0 
0 0 0 
0 0 0 
0 0 0 
0 0 0 
0 0 0 
0 0 0 
0 0 0 
0 0 0 
0 0 0 
0 0 0 
0 0 0 
0 0 0 
0 0 0 
0 0 0 
0 0 0 
0 0 0 
0 0 0 
0.84000504 0.53938615 0.058772642 
0.84138966 0.5370964 0.059924606 
0.84366745 0.5334427 0.0605327 
0 0 0 
0 0 0 
0 0 0 
0 0 0 
0 0 0 
0 0 0 
0 0 0 
0 0 0 
0 0 0 
0 0 0 
0 0 0 
0 0 0 
0.85004735 0.52356195 0.057466093 
0.84738135 0.5277293 0.058710195 
0.846771 0.5285856 0.059801165 
0.8484644 0.5257599 0.060701977 
0.8529622 0.5183494 0.061396927 
0 0 0 
0 0 0 
0 0 0 
0 0 0 
0 0 0 
0 0 0 
0 0 0 
0 0 0 
0 0 0 
0 0 0 
0.86405516 0.50040424 0.05481136 
0.8542173 0.51676846 0.05712487 
0.8498916 0.5236971 0.058528647 
0.84821934 0.52628046 0.059606157 
0.84836435 0.52594006 0.06053918 
0.8496378 0.5237869 0.06134225 
0 0 0 
0 0 0 
0 0 0 
0 0 0 
0 0 0 
0 0 0 
0 0 0 
0 0 0 
0 0 0 
0 0 0 
0.86504287 0.4986507 0.055212338 
0.853757 0.5174753 0.05760438 
0.8491454 0.52487737 0.05878612 
0.84718275 0.5279394 0.059677962 
0.84668225 0.5286529 0.06045964 
0.84657204 0.52876663 0.061006356 
0 0 0 
0 0 0 
0 0 0 
0 0 0 
0 0 0 
0 0 0 
0 0 0 
0 0 0 
0 0 0 
0 0 0 
0 0 0 
0.849109 0.5248913 0.05918784 
0.8465062 0.52904254 0.059508923 
0.8448373 0.5316427 0.06005075 
0.8445284 0.5320795 0.060525734 
0.84615 0.5294881 0.060601998 
0 0 0 
0 0 0 
0 0 0 
0 0 0 
0 0 0 
0 0 0 
0 0 0 
0 0 0 
0 0 0 
0 0 0 
0 0 0 
0.8471386 0.5280191 0.059598636 
0.8443071 0.5324782 0.06010421 
0.8422875 0.535632 0.060417563 
0.839649 0.5397454 0.06053467 
0 0 0 
0 0 0 
0 0 0 
0 0 0 
0 0 0 
0 0 0 
0 0 0 
0 0 0 
0 0 0 
0 0 0 
0 0 0 
0 0 0 
0 0 0 
0 0 0 
0 0 0 
0 0 0 
0 0 0 
0 0 0 
0 0 0 
0 0 0 
0 0 0 
0 0 0 
0 0 0 
0 0 0 
0 0 0 
0 0 0 
0 0 0 
0 0 0 
0 0 0 
0 0 0 
0 0 0 
0 0 0 
0 0 0 
0 0 0 
0 0 0 
0 0 0 
0 0 0 
0 0 0 
0 0 0 
0 0 0 
0 0 0 
0 0 0 
0 0 0 
0 0 0 
0 0 0 
0.85096616 0.5225957 0.05244436 
0.85246027 0.5201217 0.052772097 
0.8541793 0.5172682 0.05302232 
0 0 0 
0 0 0 
0 0 0 
0 0 0 
0 0 0 
0 0 0 
0 0 0 
0 0 0 
0 0 0 
0 0 0 
0 0 0 
0 0 0 
0.8668791 0.49585032 0.051507644 
0.8627043 0.5030076 0.052200597 
0.8618588 0.5044191 0.05254375 
0.86389893 0.5008984 0.052720528 
0.87012255 0.49002263 0.0525794 
0 0 0 
0 0 0 
0 0 0 
0 0 0 
0 0 0 
0 0 0 
0 0 0 
0 0 0 
0 0 0 
0 0 0 
0.8826122 0.46749535 0.049435813 
0.8739871 0.48326156 0.051040154 
0.86904883 0.4920122 0.051750917 
0.86770725 0.49435195 0.051964656 
0.86784613 0.4941006 0.052035056 
0.8708141 0.48885745 0.051975127 
0 0 0 
0 0 0 
0 0 0 
0 0 0 
0 0 0 
0 0 0 
0 0 0 
0 0 0 
0 0 0 
0 0 0 
0.88516706 0.46260613 0.0497493 
0.87722135 0.47736472 0.05104614 
0.8729089 0.4851576 0.051498108 
0.8700356 0.49028277 0.051584892 
0.8706484 0.48922288 0.051307816 
0.8739672 0.4833494 0.05054473 
0.8873343 0.45862964 0.047925126 
0 0 0 
0 0 0 
0 0 0 
0 0 0 
0 0 0 
0 0 0 
0 0 0 
0 0 0 
0 0 0 
0.88783467 0.45743355 0.050042044 
0.87960154 0.47292945 0.051369037 
0.8738811 0.48338547 0.05167536 
0.8705305 0.4894081 0.051541205 
0.8695329 0.49121773 0.051163502 
0.869787 0.49083403 0.050525203 
0 0 0 
0 0 0 
0 0 0 
0 0 0 
0 0 0 
0 0 0 
0 0 0 
0 0 0 
0 0 0 
0 0 0 
0 0 0 
0.8783119 0.47523877 0.05211901 
0.8738916 0.48331887 0.052119438 
0.8664832 0.4965109 0.051806305 
0.86720335 0.4953354 0.051001944 
0.86609054 0.49740762 0.04972815 
0 0 0 
0 0 0 
0 0 0 
0 0 0 
0 0 0 
0 0 0 
0 0 0 
0 0 0 
0 0 0 
0 0 0 
0 0 0 
0 0 0 
0 0 0 
0.8517981 0.52127737 0.0520562 
0 0 0 
0 0 0 
0 0 0 
0 0 0 
0 0 0 
0 0 0 
0 0 0 
0 0 0 
0 0 0 
0 0 0 
0 0 0 
0 0 0 
0 0 0 
0 0 0 
0 0 0 
0 0 0 
0 0 0 
0 0 0 
0 0 0 
0 0 0 
0 0 0 
0 0 0 
0 0 0 
0 0 0 
0 0 0 
0 0 0 
0 0 0 
0 0 0 
0 0 0 
0 0 0 
0 0 0 
0 0 0 
0 0 0 
0 0 0 
0 0 0 
0 0 0 
0 0 0 
0 0 0 
0 0 0 
0 0 0 
0 0 0 
0 0 0 
0 0 0 
0 0 0 
0 0 0 
0 0 0 
0 0 0 
0 0 0 
0 0 0 
0 0 0 
0 0 0 
0 0 0 
0 0 0 
0 0 0 
0 0 0 
0 0 0 
0 0 0 
0 0 0 
0 0 0 
0 0 0 
0.8443834 0.5350351 0.027460683 
0.8454275 0.53335506 0.02801222 
0.84739995 0.530197 0.028361749 
0.8499424 0.526112 0.02835681 
0 0 0 
0 0 0 
0 0 0 
0 0 0 
0 0 0 
0 0 0 
0 0 0 
0 0 0 
0 0 0 
0 0 0 
0 0 0 
0.85762125 0.5135741 0.0269717 
0.8524187 0.5221287 0.02764041 
0.8515498 0.5235217 0.02807018 
0.85194296 0.52287644 0.028167687 
0.8552079 0.51751834 0.028184576 
0.862385 0.5054937 0.027718648 
0 0 0 
0 0 0 
0 0 0 
0 0 0 
0 0 0 
0 0 0 
0 0 0 
0 0 0 
0 0 0 
0 0 0 
0.86117184 0.50757134 0.027465312 
0.856932 0.5146739 0.027900305 
0.85451674 0.51866925 0.027988827 
0.8544319 0.5188047 0.028066328 
0.8559693 0.5162751 0.027870508 
0.86104035 0.5077874 0.02759352 
0 0 0 
0 0 0 
0 0 0 
0 0 0 
0 0 0 
0 0 0 
0 0 0 
0 0 0 
0 0 0 
0 0 0 
0.86471784 0.50148547 0.02784907 
0.8589443 0.51130044 0.028047657 
0.8560568 0.51611674 0.028115796 
0.8545237 0.51866245 0.02789942 
0.85546637 0.51711744 0.027691789 
0.8587551 0.5116644 0.027188938 
0 0 0 
0 0 0 
0 0 0 
0 0 0 
0 0 0 
0 0 0 
0 0 0 
0 0 0 
0 0 0 
0 0 0 
0.8671667 0.49723265 0.027958144 
0.85965437 0.5100905 0.028324988 
0.855134 0.51764053 0.028180834 
0.85306776 0.52105135 0.027947392 
0.85232323 0.5222967 0.027411485 
0.85612357 0.51608175 0.026685653 
0 0 0 
0 0 0 
0 0 0 
0 0 0 
0 0 0 
0 0 0 
0 0 0 
0 0 0 
0 0 0 
0 0 0 
0 0 0 
0.8555851 0.51688015 0.028445138 
0.85180706 0.5230881 0.02834756 
0.8481099 0.52908653 0.027875295 
0.8456631 0.5330214 0.02724125 
0 0 0 
0 0 0 
0 0 0 
0 0 0 
0 0 0 
0 0 0 
0 0 0 
0 0 0 
0 0 0 
0 0 0 
0 0 0 
0 0 0 
0 0 0 
0 0 0 
0 0 0 
0 0 0 
0 0 0 
0 0 0 
0 0 0 
0 0 0 
0 0 0 
0 0 0 
0 0 0 
0 0 0 
0 0 0 
0 0 0 
0 0 0 
0 0 0 
0 0 0 
0 0 0 
0 0 0 
0 0 0 
0 0 0 
0 0 0 
0 0 0 
0 0 0 
0 0 0 
0 0 0 
0 0 0 
0 0 0 
# End: Data Text
# End: Segment
