# OOMMF: rectangular mesh v1.0
# Segment count: 1
# Begin: Segment
# Begin: Header
# Desc: Time (s) :  4.604184023642581e-09
# Title: m
# meshtype: rectangular
# meshunit: m
# xbase: 2.5e-09
# ybase: 2.5e-09
# zbase: 2.25e-08
# xstepsize: 5e-09
# ystepsize: 5e-09
# zstepsize: 4.5e-08
# xmin: 0
# ymin: 0
# zmin: 0
# xmax: 8e-08
# ymax: 1.6e-07
# zmax: 4.5e-08
# xnodes: 16
# ynodes: 32
# znodes: 1
# ValueRangeMinMag: 1e-08
# ValueRangeMaxMag: 1
# valueunit: 
# valuemultiplier: 1
# End: Header
# Begin: Data Text
0 0 0 
0 0 0 
0 0 0 
0 0 0 
0 0 0 
0 0 0 
0 0 0 
0 0 0 
0 0 0 
0 0 0 
0 0 0 
0 0 0 
0 0 0 
0 0 0 
0 0 0 
0 0 0 
0 0 0 
0 0 0 
0 0 0 
0 0 0 
0 0 0 
0 0 0 
0 0 0 
0 0 0 
0 0 0 
0 0 0 
0 0 0 
0 0 0 
0 0 0 
0 0 0 
0 0 0 
0 0 0 
0 0 0 
0 0 0 
0 0 0 
0 0 0 
0 0 0 
0 0 0 
0 0 0 
0 0 0 
0 0 0 
0 0 0 
0 0 0 
0 0 0 
0 0 0 
0 0 0 
0 0 0 
0 0 0 
0 0 0 
0 0 0 
0 0 0 
0 0 0 
0 0 0 
0 0 0 
0 0 0 
0 0 0 
0 0 0 
0 0 0 
0 0 0 
0 0 0 
0 0 0 
0 0 0 
0 0 0 
0 0 0 
0 0 0 
0 0 0 
0 0 0 
0 0 0 
0 0 0 
0 0 0 
0 0 0 
0 0 0 
0 0 0 
0 0 0 
0 0 0 
0 0 0 
0 0 0 
0 0 0 
0 0 0 
0 0 0 
0 0 0 
0 0 0 
0 0 0 
0 0 0 
0 0 0 
0 0 0 
0 0 0 
0 0 0 
0 0 0 
0 0 0 
0 0 0 
0 0 0 
0 0 0 
0 0 0 
0 0 0 
0 0 0 
0 0 0 
0 0 0 
0 0 0 
0 0 0 
0 0 0 
0 0 0 
0.855821 0.51703066 0.01579858 
0.8575215 0.5141979 0.016050773 
0.86003447 0.5099803 0.016147148 
0 0 0 
0 0 0 
0 0 0 
0 0 0 
0 0 0 
0 0 0 
0 0 0 
0 0 0 
0 0 0 
0 0 0 
0 0 0 
0 0 0 
0.8647773 0.50191826 0.015439304 
0.86268574 0.50549513 0.015751317 
0.86247665 0.50584453 0.015982857 
0.8643852 0.5025707 0.016152462 
0.868913 0.494698 0.01625444 
0 0 0 
0 0 0 
0 0 0 
0 0 0 
0 0 0 
0 0 0 
0 0 0 
0 0 0 
0 0 0 
0 0 0 
0.8775884 0.47919092 0.014654562 
0.86874795 0.49501806 0.015305118 
0.865045 0.50144976 0.015663754 
0.8637415 0.50368375 0.015919253 
0.8641239 0.50302136 0.016108766 
0.8655333 0.500587 0.016279226 
0 0 0 
0 0 0 
0 0 0 
0 0 0 
0 0 0 
0 0 0 
0 0 0 
0 0 0 
0 0 0 
0 0 0 
0.87869674 0.47715285 0.01473957 
0.86853045 0.49539688 0.015393222 
0.8644175 0.5025291 0.015715934 
0.86274594 0.50538665 0.015929574 
0.86238974 0.50598836 0.01611561 
0.8623473 0.5060571 0.01623496 
0 0 0 
0 0 0 
0 0 0 
0 0 0 
0 0 0 
0 0 0 
0 0 0 
0 0 0 
0 0 0 
0 0 0 
0 0 0 
0.8646644 0.50210184 0.015788056 
0.86214375 0.5064148 0.015885519 
0.86055344 0.5091075 0.016040461 
0.8602623 0.5095958 0.01615697 
0.86167306 0.5072065 0.016159499 
0 0 0 
0 0 0 
0 0 0 
0 0 0 
0 0 0 
0 0 0 
0 0 0 
0 0 0 
0 0 0 
0 0 0 
0 0 0 
0.86322194 0.5045753 0.015866669 
0.86031765 0.50950605 0.016033674 
0.8581858 0.5130854 0.016143514 
0.85553676 0.5174886 0.016197326 
0 0 0 
0 0 0 
0 0 0 
0 0 0 
0 0 0 
0 0 0 
0 0 0 
0 0 0 
0 0 0 
0 0 0 
0 0 0 
0 0 0 
0 0 0 
0 0 0 
0 0 0 
0 0 0 
0 0 0 
0 0 0 
0 0 0 
0 0 0 
0 0 0 
0 0 0 
0 0 0 
0 0 0 
0 0 0 
0 0 0 
0 0 0 
0 0 0 
0 0 0 
0 0 0 
0 0 0 
0 0 0 
0 0 0 
0 0 0 
0 0 0 
0 0 0 
0 0 0 
0 0 0 
0 0 0 
0 0 0 
0 0 0 
0 0 0 
0 0 0 
0 0 0 
0 0 0 
0.83993363 0.54244864 0.01615581 
0.8412615 0.5403836 0.016271722 
0.8428055 0.53797084 0.016319085 
0 0 0 
0 0 0 
0 0 0 
0 0 0 
0 0 0 
0 0 0 
0 0 0 
0 0 0 
0 0 0 
0 0 0 
0 0 0 
0 0 0 
0.85693157 0.5151892 0.015760396 
0.8523343 0.5227508 0.016060209 
0.8512668 0.5244855 0.01612255 
0.8532153 0.52130646 0.016231 
0.85961574 0.51068646 0.016128749 
0 0 0 
0 0 0 
0 0 0 
0 0 0 
0 0 0 
0 0 0 
0 0 0 
0 0 0 
0 0 0 
0 0 0 
0.8735244 0.4865494 0.014987518 
0.86431193 0.50271475 0.015582335 
0.85900253 0.51172805 0.015788803 
0.85749173 0.5142491 0.015997445 
0.8575762 0.51410955 0.015948351 
0.8606275 0.5089841 0.015984975 
0 0 0 
0 0 0 
0 0 0 
0 0 0 
0 0 0 
0 0 0 
0 0 0 
0 0 0 
0 0 0 
0 0 0 
0.8760276 0.48202574 0.015059793 
0.86759406 0.49703258 0.015468893 
0.86302334 0.5049179 0.015771002 
0.8600197 0.5100174 0.015762363 
0.8606959 0.50887334 0.01582545 
0.8642878 0.50275767 0.015539305 
0.87856036 0.47740388 0.014739414 
0 0 0 
0 0 0 
0 0 0 
0 0 0 
0 0 0 
0 0 0 
0 0 0 
0 0 0 
0 0 0 
0.87865126 0.4772254 0.015096748 
0.86994064 0.49291003 0.015594865 
0.8640074 0.5032338 0.0157182 
0.8605757 0.5090756 0.01586299 
0.8596705 0.5106064 0.01573927 
0.86010176 0.50988305 0.015630893 
0 0 0 
0 0 0 
0 0 0 
0 0 0 
0 0 0 
0 0 0 
0 0 0 
0 0 0 
0 0 0 
0 0 0 
0 0 0 
0.86836904 0.49566695 0.015796231 
0.8639286 0.5033629 0.01591352 
0.85633355 0.5161781 0.015913604 
0.857362 0.5144722 0.015774017 
0.8564462 0.51600605 0.015411837 
0 0 0 
0 0 0 
0 0 0 
0 0 0 
0 0 0 
0 0 0 
0 0 0 
0 0 0 
0 0 0 
0 0 0 
0 0 0 
0 0 0 
0 0 0 
0.84075505 0.5411767 0.01608631 
0 0 0 
0 0 0 
0 0 0 
0 0 0 
0 0 0 
0 0 0 
0 0 0 
0 0 0 
0 0 0 
0 0 0 
0 0 0 
0 0 0 
0 0 0 
0 0 0 
0 0 0 
0 0 0 
0 0 0 
0 0 0 
0 0 0 
0 0 0 
0 0 0 
0 0 0 
0 0 0 
0 0 0 
0 0 0 
0 0 0 
0 0 0 
0 0 0 
0 0 0 
0 0 0 
0 0 0 
0 0 0 
0 0 0 
0 0 0 
0 0 0 
0 0 0 
0 0 0 
0 0 0 
0 0 0 
0 0 0 
0 0 0 
0 0 0 
0 0 0 
0 0 0 
0 0 0 
0 0 0 
0 0 0 
0 0 0 
0 0 0 
0 0 0 
0 0 0 
0 0 0 
0 0 0 
0 0 0 
0 0 0 
0 0 0 
0 0 0 
0 0 0 
0 0 0 
0 0 0 
0.8628279 0.5054491 0.007007742 
0.86434096 0.5028566 0.007066183 
0.8665597 0.4990215 0.0072052213 
0.8693797 0.4940934 0.007117137 
0 0 0 
0 0 0 
0 0 0 
0 0 0 
0 0 0 
0 0 0 
0 0 0 
0 0 0 
0 0 0 
0 0 0 
0 0 0 
0.8748209 0.48439834 0.006831874 
0.87051487 0.49209368 0.006915405 
0.86982477 0.4933081 0.0072144167 
0.8707156 0.49173716 0.0069974056 
0.87370497 0.48640326 0.0071752314 
0.8804715 0.4740483 0.0069345734 
0 0 0 
0 0 0 
0 0 0 
0 0 0 
0 0 0 
0 0 0 
0 0 0 
0 0 0 
0 0 0 
0 0 0 
0.8785926 0.47752273 0.0068587055 
0.8747137 0.48458758 0.0071413987 
0.87294364 0.48777226 0.006903886 
0.87253046 0.48850587 0.0072511653 
0.874278 0.48537627 0.006924551 
0.87872595 0.47727552 0.006998097 
0 0 0 
0 0 0 
0 0 0 
0 0 0 
0 0 0 
0 0 0 
0 0 0 
0 0 0 
0 0 0 
0 0 0 
0.88224304 0.47074232 0.0069930195 
0.8771142 0.4802323 0.006920252 
0.8740622 0.48576012 0.007248251 
0.8729081 0.48783594 0.0069030155 
0.87325543 0.48721027 0.007143506 
0.876225 0.48185346 0.006862538 
0 0 0 
0 0 0 
0 0 0 
0 0 0 
0 0 0 
0 0 0 
0 0 0 
0 0 0 
0 0 0 
0 0 0 
0.88499016 0.46555814 0.006932072 
0.877887 0.47881407 0.007170821 
0.8736803 0.48645028 0.006991324 
0.87117714 0.49091586 0.0072122146 
0.8703183 0.49244127 0.006913913 
0.8732929 0.48714772 0.006834842 
0 0 0 
0 0 0 
0 0 0 
0 0 0 
0 0 0 
0 0 0 
0 0 0 
0 0 0 
0 0 0 
0 0 0 
0 0 0 
0.87464803 0.4847064 0.007113998 
0.87064594 0.49185768 0.0072001326 
0.86677086 0.49865657 0.0070612654 
0.86391175 0.5035945 0.0070044543 
0 0 0 
0 0 0 
0 0 0 
0 0 0 
0 0 0 
0 0 0 
0 0 0 
0 0 0 
0 0 0 
0 0 0 
0 0 0 
0 0 0 
0 0 0 
0 0 0 
0 0 0 
0 0 0 
0 0 0 
0 0 0 
0 0 0 
0 0 0 
0 0 0 
0 0 0 
0 0 0 
0 0 0 
0 0 0 
0 0 0 
0 0 0 
0 0 0 
0 0 0 
0 0 0 
0 0 0 
0 0 0 
0 0 0 
0 0 0 
0 0 0 
0 0 0 
0 0 0 
0 0 0 
0 0 0 
0 0 0 
# End: Data Text
# End: Segment
