# OOMMF: rectangular mesh v1.0
# Segment count: 1
# Begin: Segment
# Begin: Header
# Desc: Time (s) :  8.82467592744647e-09
# Title: m
# meshtype: rectangular
# meshunit: m
# xbase: 2.5e-09
# ybase: 2.5e-09
# zbase: 2.25e-08
# xstepsize: 5e-09
# ystepsize: 5e-09
# zstepsize: 4.5e-08
# xmin: 0
# ymin: 0
# zmin: 0
# xmax: 8e-08
# ymax: 1.6e-07
# zmax: 4.5e-08
# xnodes: 16
# ynodes: 32
# znodes: 1
# ValueRangeMinMag: 1e-08
# ValueRangeMaxMag: 1
# valueunit: 
# valuemultiplier: 1
# End: Header
# Begin: Data Text
0 0 0 
0 0 0 
0 0 0 
0 0 0 
0 0 0 
0 0 0 
0 0 0 
0 0 0 
0 0 0 
0 0 0 
0 0 0 
0 0 0 
0 0 0 
0 0 0 
0 0 0 
0 0 0 
0 0 0 
0 0 0 
0 0 0 
0 0 0 
0 0 0 
0 0 0 
0 0 0 
0 0 0 
0 0 0 
0 0 0 
0 0 0 
0 0 0 
0 0 0 
0 0 0 
0 0 0 
0 0 0 
0 0 0 
0 0 0 
0 0 0 
0 0 0 
0 0 0 
0 0 0 
0 0 0 
0 0 0 
0 0 0 
0 0 0 
0 0 0 
0 0 0 
0 0 0 
0 0 0 
0 0 0 
0 0 0 
0 0 0 
0 0 0 
0 0 0 
0 0 0 
0 0 0 
0 0 0 
0 0 0 
0 0 0 
0 0 0 
0 0 0 
0 0 0 
0 0 0 
0 0 0 
0 0 0 
0 0 0 
0 0 0 
0 0 0 
0 0 0 
0 0 0 
0 0 0 
0 0 0 
0 0 0 
0 0 0 
0 0 0 
0 0 0 
0 0 0 
0 0 0 
0 0 0 
0 0 0 
0 0 0 
0 0 0 
0 0 0 
0 0 0 
0 0 0 
0 0 0 
0 0 0 
0 0 0 
0 0 0 
0 0 0 
0 0 0 
0 0 0 
0 0 0 
0 0 0 
0 0 0 
0 0 0 
0 0 0 
0 0 0 
0 0 0 
0 0 0 
0 0 0 
0 0 0 
0 0 0 
0 0 0 
0 0 0 
0.8554615 0.5166483 -0.035499554 
0.8571205 0.5138341 -0.036316432 
0.85959494 0.50964856 -0.03681 
0 0 0 
0 0 0 
0 0 0 
0 0 0 
0 0 0 
0 0 0 
0 0 0 
0 0 0 
0 0 0 
0 0 0 
0 0 0 
0 0 0 
0.8644687 0.50149286 -0.034624323 
0.8623293 0.5051045 -0.035463486 
0.8620515 0.5055217 -0.036265634 
0.86391157 0.50228554 -0.03696054 
0.8683841 0.49447083 -0.037517883 
0 0 0 
0 0 0 
0 0 0 
0 0 0 
0 0 0 
0 0 0 
0 0 0 
0 0 0 
0 0 0 
0 0 0 
0.8773494 0.478713 -0.033043545 
0.8684497 0.49457777 -0.034469355 
0.864665 0.5011004 -0.035398263 
0.86329997 0.5033941 -0.03615902 
0.863604 0.5028221 -0.036851265 
0.86497533 0.5004164 -0.037431385 
0 0 0 
0 0 0 
0 0 0 
0 0 0 
0 0 0 
0 0 0 
0 0 0 
0 0 0 
0 0 0 
0 0 0 
0.87844986 0.476671 -0.03332755 
0.8682014 0.4949874 -0.034840055 
0.8640175 0.5022015 -0.035602912 
0.8622457 0.505194 -0.03621434 
0.86183065 0.50586224 -0.036759254 
0.8617423 0.5059842 -0.037151154 
0 0 0 
0 0 0 
0 0 0 
0 0 0 
0 0 0 
0 0 0 
0 0 0 
0 0 0 
0 0 0 
0 0 0 
0 0 0 
0.86428195 0.50172406 -0.0359119 
0.8616832 0.5061606 -0.036106672 
0.8600095 0.5089749 -0.03644367 
0.85963553 0.5095834 -0.036763057 
0.86103207 0.50721425 -0.03684437 
0 0 0 
0 0 0 
0 0 0 
0 0 0 
0 0 0 
0 0 0 
0 0 0 
0 0 0 
0 0 0 
0 0 0 
0 0 0 
0.8628131 0.504222 -0.036245342 
0.85982704 0.5092777 -0.03651805 
0.8575864 0.51303065 -0.03667645 
0.8548668 0.51754564 -0.03673272 
0 0 0 
0 0 0 
0 0 0 
0 0 0 
0 0 0 
0 0 0 
0 0 0 
0 0 0 
0 0 0 
0 0 0 
0 0 0 
0 0 0 
0 0 0 
0 0 0 
0 0 0 
0 0 0 
0 0 0 
0 0 0 
0 0 0 
0 0 0 
0 0 0 
0 0 0 
0 0 0 
0 0 0 
0 0 0 
0 0 0 
0 0 0 
0 0 0 
0 0 0 
0 0 0 
0 0 0 
0 0 0 
0 0 0 
0 0 0 
0 0 0 
0 0 0 
0 0 0 
0 0 0 
0 0 0 
0 0 0 
0 0 0 
0 0 0 
0 0 0 
0 0 0 
0 0 0 
0.8178726 0.57536346 -0.0064212717 
0.8187909 0.57405686 -0.006345597 
0.8202354 0.5719894 -0.006495838 
0 0 0 
0 0 0 
0 0 0 
0 0 0 
0 0 0 
0 0 0 
0 0 0 
0 0 0 
0 0 0 
0 0 0 
0 0 0 
0 0 0 
0.8368395 0.5474072 -0.0067144297 
0.8311563 0.5560021 -0.0064034886 
0.8302794 0.5573064 -0.0067563513 
0.8316514 0.55526114 -0.0064179148 
0.83870333 0.5445474 -0.0066899317 
0 0 0 
0 0 0 
0 0 0 
0 0 0 
0 0 0 
0 0 0 
0 0 0 
0 0 0 
0 0 0 
0 0 0 
0.8550375 0.5185208 -0.006862924 
0.8444236 0.53563476 -0.006645387 
0.83908474 0.5439557 -0.007016276 
0.8365568 0.54784393 -0.0063264207 
0.8373969 0.54655266 -0.0068371943 
0.8402052 0.54222953 -0.006503292 
0 0 0 
0 0 0 
0 0 0 
0 0 0 
0 0 0 
0 0 0 
0 0 0 
0 0 0 
0 0 0 
0 0 0 
0.85728157 0.51480156 -0.0069098133 
0.8483094 0.5294521 -0.007194842 
0.8426531 0.53841716 -0.0065458464 
0.8403957 0.5419276 -0.0070406417 
0.84049505 0.54178274 -0.0062933075 
0.8452446 0.5343392 -0.006586516 
0.8610964 0.50840425 -0.006189662 
0 0 0 
0 0 0 
0 0 0 
0 0 0 
0 0 0 
0 0 0 
0 0 0 
0 0 0 
0 0 0 
0.8599255 0.5103695 -0.007157321 
0.8501097 0.5265595 -0.0069858828 
0.8444133 0.5356437 -0.0072136396 
0.84028506 0.5421063 -0.006464732 
0.8403214 0.54204667 -0.006747475 
0.84080416 0.54130286 -0.006295827 
0 0 0 
0 0 0 
0 0 0 
0 0 0 
0 0 0 
0 0 0 
0 0 0 
0 0 0 
0 0 0 
0 0 0 
0 0 0 
0.8482608 0.5295286 -0.0072941566 
0.8437048 0.53676254 -0.006954447 
0.83627355 0.5482696 -0.0068638017 
0.83771086 0.54607666 -0.006393641 
0.83748317 0.5464275 -0.006248487 
0 0 0 
0 0 0 
0 0 0 
0 0 0 
0 0 0 
0 0 0 
0 0 0 
0 0 0 
0 0 0 
0 0 0 
0 0 0 
0 0 0 
0 0 0 
0.8189777 0.5737877 -0.006569518 
0 0 0 
0 0 0 
0 0 0 
0 0 0 
0 0 0 
0 0 0 
0 0 0 
0 0 0 
0 0 0 
0 0 0 
0 0 0 
0 0 0 
0 0 0 
0 0 0 
0 0 0 
0 0 0 
0 0 0 
0 0 0 
0 0 0 
0 0 0 
0 0 0 
0 0 0 
0 0 0 
0 0 0 
0 0 0 
0 0 0 
0 0 0 
0 0 0 
0 0 0 
0 0 0 
0 0 0 
0 0 0 
0 0 0 
0 0 0 
0 0 0 
0 0 0 
0 0 0 
0 0 0 
0 0 0 
0 0 0 
0 0 0 
0 0 0 
0 0 0 
0 0 0 
0 0 0 
0 0 0 
0 0 0 
0 0 0 
0 0 0 
0 0 0 
0 0 0 
0 0 0 
0 0 0 
0 0 0 
0 0 0 
0 0 0 
0 0 0 
0 0 0 
0 0 0 
0 0 0 
0.8792553 0.4761532 -0.013724689 
0.8810906 0.47273883 -0.014051154 
0.8835467 0.4681265 -0.014245959 
0.88652366 0.46246257 -0.014294076 
0 0 0 
0 0 0 
0 0 0 
0 0 0 
0 0 0 
0 0 0 
0 0 0 
0 0 0 
0 0 0 
0 0 0 
0 0 0 
0.89007205 0.45562062 -0.013477484 
0.88648623 0.46254754 -0.013852293 
0.8860938 0.46329376 -0.014026578 
0.88722676 0.461116 -0.014172146 
0.890095 0.45555568 -0.014140207 
0.89637053 0.44308683 -0.0139302015 
0 0 0 
0 0 0 
0 0 0 
0 0 0 
0 0 0 
0 0 0 
0 0 0 
0 0 0 
0 0 0 
0 0 0 
0.8939382 0.4479785 -0.01377807 
0.8905198 0.4547306 -0.013947845 
0.889119 0.45745972 -0.014071714 
0.8886762 0.45832133 -0.0140072 
0.8903874 0.4549885 -0.013990307 
0.89437497 0.44710523 -0.013795271 
0 0 0 
0 0 0 
0 0 0 
0 0 0 
0 0 0 
0 0 0 
0 0 0 
0 0 0 
0 0 0 
0 0 0 
0.89768946 0.44040668 -0.013990518 
0.8930634 0.44970915 -0.014121099 
0.8901204 0.4555092 -0.014036356 
0.88907963 0.4575388 -0.0139884995 
0.88913363 0.45744058 -0.013769715 
0.8916928 0.45243835 -0.013546198 
0 0 0 
0 0 0 
0 0 0 
0 0 0 
0 0 0 
0 0 0 
0 0 0 
0 0 0 
0 0 0 
0 0 0 
0.90061015 0.43439922 -0.014093431 
0.8940278 0.4477858 -0.014220711 
0.890016 0.4557098 -0.014150613 
0.8873605 0.46086684 -0.013897885 
0.8862865 0.4629365 -0.01363982 
0.88861287 0.4584673 -0.013223416 
0 0 0 
0 0 0 
0 0 0 
0 0 0 
0 0 0 
0 0 0 
0 0 0 
0 0 0 
0 0 0 
0 0 0 
0 0 0 
0.8914727 0.45284835 -0.014314172 
0.8873932 0.46079502 -0.014187273 
0.8833782 0.46845472 -0.0138967885 
0.8802706 0.47427985 -0.013503501 
0 0 0 
0 0 0 
0 0 0 
0 0 0 
0 0 0 
0 0 0 
0 0 0 
0 0 0 
0 0 0 
0 0 0 
0 0 0 
0 0 0 
0 0 0 
0 0 0 
0 0 0 
0 0 0 
0 0 0 
0 0 0 
0 0 0 
0 0 0 
0 0 0 
0 0 0 
0 0 0 
0 0 0 
0 0 0 
0 0 0 
0 0 0 
0 0 0 
0 0 0 
0 0 0 
0 0 0 
0 0 0 
0 0 0 
0 0 0 
0 0 0 
0 0 0 
0 0 0 
0 0 0 
0 0 0 
0 0 0 
# End: Data Text
# End: Segment
