# OOMMF: rectangular mesh v1.0
# Segment count: 1
# Begin: Segment
# Begin: Header
# Desc: Time (s) :  7.073279066784907e-10
# Title: m
# meshtype: rectangular
# meshunit: m
# xbase: 2.5e-09
# ybase: 2.5e-09
# zbase: 2.25e-08
# xstepsize: 5e-09
# ystepsize: 5e-09
# zstepsize: 4.5e-08
# xmin: 0
# ymin: 0
# zmin: 0
# xmax: 8e-08
# ymax: 1.6e-07
# zmax: 4.5e-08
# xnodes: 16
# ynodes: 32
# znodes: 1
# ValueRangeMinMag: 1e-08
# ValueRangeMaxMag: 1
# valueunit: 
# valuemultiplier: 1
# End: Header
# Begin: Data Text
0 0 0 
0 0 0 
0 0 0 
0 0 0 
0 0 0 
0 0 0 
0 0 0 
0 0 0 
0 0 0 
0 0 0 
0 0 0 
0 0 0 
0 0 0 
0 0 0 
0 0 0 
0 0 0 
0 0 0 
0 0 0 
0 0 0 
0 0 0 
0 0 0 
0 0 0 
0 0 0 
0 0 0 
0 0 0 
0 0 0 
0 0 0 
0 0 0 
0 0 0 
0 0 0 
0 0 0 
0 0 0 
0 0 0 
0 0 0 
0 0 0 
0 0 0 
0 0 0 
0 0 0 
0 0 0 
0 0 0 
0 0 0 
0 0 0 
0 0 0 
0 0 0 
0 0 0 
0 0 0 
0 0 0 
0 0 0 
0 0 0 
0 0 0 
0 0 0 
0 0 0 
0 0 0 
0 0 0 
0 0 0 
0 0 0 
0 0 0 
0 0 0 
0 0 0 
0 0 0 
0 0 0 
0 0 0 
0 0 0 
0 0 0 
0 0 0 
0 0 0 
0 0 0 
0 0 0 
0 0 0 
0 0 0 
0 0 0 
0 0 0 
0 0 0 
0 0 0 
0 0 0 
0 0 0 
0 0 0 
0 0 0 
0 0 0 
0 0 0 
0 0 0 
0 0 0 
0 0 0 
0 0 0 
0 0 0 
0 0 0 
0 0 0 
0 0 0 
0 0 0 
0 0 0 
0 0 0 
0 0 0 
0 0 0 
0 0 0 
0 0 0 
0 0 0 
0 0 0 
0 0 0 
0 0 0 
0 0 0 
0 0 0 
0 0 0 
0.855861 0.5169658 0.015759189 
0.85756373 0.5141278 0.01603542 
0.8600762 0.50991124 0.016108105 
0 0 0 
0 0 0 
0 0 0 
0 0 0 
0 0 0 
0 0 0 
0 0 0 
0 0 0 
0 0 0 
0 0 0 
0 0 0 
0 0 0 
0.86481345 0.50185716 0.015396293 
0.8627272 0.5054241 0.015759131 
0.86251503 0.5057815 0.015907232 
0.86442953 0.5024944 0.016153108 
0.86895555 0.49462456 0.016214322 
0 0 0 
0 0 0 
0 0 0 
0 0 0 
0 0 0 
0 0 0 
0 0 0 
0 0 0 
0 0 0 
0 0 0 
0.8776219 0.4791306 0.014618639 
0.8687864 0.4949504 0.015309874 
0.86508 0.50139207 0.015576846 
0.8637858 0.50360674 0.015950764 
0.8641629 0.50295687 0.0160287 
0.86557704 0.50051177 0.016263904 
0 0 0 
0 0 0 
0 0 0 
0 0 0 
0 0 0 
0 0 0 
0 0 0 
0 0 0 
0 0 0 
0 0 0 
0.87873113 0.47709003 0.014718865 
0.86856556 0.49533734 0.015329113 
0.86446106 0.5024532 0.015742837 
0.86278284 0.50532657 0.015835844 
0.8624352 0.5059105 0.016132122 
0.8623889 0.5059876 0.016186526 
0 0 0 
0 0 0 
0 0 0 
0 0 0 
0 0 0 
0 0 0 
0 0 0 
0 0 0 
0 0 0 
0 0 0 
0 0 0 
0.8647059 0.5020307 0.015776316 
0.86218214 0.5063516 0.015815407 
0.8605987 0.50903076 0.016053388 
0.86030275 0.5095296 0.016093744 
0.8617161 0.507134 0.01613679 
0 0 0 
0 0 0 
0 0 0 
0 0 0 
0 0 0 
0 0 0 
0 0 0 
0 0 0 
0 0 0 
0 0 0 
0 0 0 
0.8632635 0.5045053 0.015831668 
0.8603614 0.50943285 0.016016383 
0.8582274 0.5130173 0.016096942 
0.855581 0.5174162 0.016175134 
0 0 0 
0 0 0 
0 0 0 
0 0 0 
0 0 0 
0 0 0 
0 0 0 
0 0 0 
0 0 0 
0 0 0 
0 0 0 
0 0 0 
0 0 0 
0 0 0 
0 0 0 
0 0 0 
0 0 0 
0 0 0 
0 0 0 
0 0 0 
0 0 0 
0 0 0 
0 0 0 
0 0 0 
0 0 0 
0 0 0 
0 0 0 
0 0 0 
0 0 0 
0 0 0 
0 0 0 
0 0 0 
0 0 0 
0 0 0 
0 0 0 
0 0 0 
0 0 0 
0 0 0 
0 0 0 
0 0 0 
0 0 0 
0 0 0 
0 0 0 
0 0 0 
0 0 0 
0.8400164 0.5423183 0.016226199 
0.8412396 0.54042065 0.016168714 
0.84288514 0.53784406 0.016382108 
0 0 0 
0 0 0 
0 0 0 
0 0 0 
0 0 0 
0 0 0 
0 0 0 
0 0 0 
0 0 0 
0 0 0 
0 0 0 
0 0 0 
0.857026 0.5150289 0.01586228 
0.85221136 0.5229594 0.015787361 
0.8514951 0.5241047 0.016444657 
0.85311073 0.521485 0.015986364 
0.85969496 0.5105508 0.016201377 
0 0 0 
0 0 0 
0 0 0 
0 0 0 
0 0 0 
0 0 0 
0 0 0 
0 0 0 
0 0 0 
0 0 0 
0.87359506 0.48642057 0.015056893 
0.8641936 0.50292647 0.015310526 
0.8592932 0.51122576 0.016231922 
0.85724616 0.51467335 0.015508145 
0.85783345 0.51366836 0.016328627 
0.86057717 0.50907373 0.015835343 
0 0 0 
0 0 0 
0 0 0 
0 0 0 
0 0 0 
0 0 0 
0 0 0 
0 0 0 
0 0 0 
0 0 0 
0.8760051 0.48207006 0.014955327 
0.86780804 0.4966486 0.015790714 
0.8627822 0.5053449 0.01528089 
0.8603605 0.5094257 0.016293816 
0.8604891 0.5092362 0.015402027 
0.86444366 0.5024827 0.01575521 
0.8785727 0.47738212 0.014706854 
0 0 0 
0 0 0 
0 0 0 
0 0 0 
0 0 0 
0 0 0 
0 0 0 
0 0 0 
0 0 0 
0.87871855 0.47709942 0.015159238 
0.8698405 0.4930941 0.01535121 
0.8642575 0.5027921 0.016098162 
0.8603685 0.5094387 0.015438011 
0.85989136 0.5102244 0.016063377 
0.86005926 0.5099588 0.015497066 
0 0 0 
0 0 0 
0 0 0 
0 0 0 
0 0 0 
0 0 0 
0 0 0 
0 0 0 
0 0 0 
0 0 0 
0 0 0 
0.8684455 0.49553058 0.015870707 
0.8638795 0.5034518 0.01576365 
0.8564946 0.51590395 0.016130151 
0.8573195 0.5145472 0.015639562 
0.8565085 0.51590145 0.01545958 
0 0 0 
0 0 0 
0 0 0 
0 0 0 
0 0 0 
0 0 0 
0 0 0 
0 0 0 
0 0 0 
0 0 0 
0 0 0 
0 0 0 
0 0 0 
0.84077287 0.54115003 0.016052747 
0 0 0 
0 0 0 
0 0 0 
0 0 0 
0 0 0 
0 0 0 
0 0 0 
0 0 0 
0 0 0 
0 0 0 
0 0 0 
0 0 0 
0 0 0 
0 0 0 
0 0 0 
0 0 0 
0 0 0 
0 0 0 
0 0 0 
0 0 0 
0 0 0 
0 0 0 
0 0 0 
0 0 0 
0 0 0 
0 0 0 
0 0 0 
0 0 0 
0 0 0 
0 0 0 
0 0 0 
0 0 0 
0 0 0 
0 0 0 
0 0 0 
0 0 0 
0 0 0 
0 0 0 
0 0 0 
0 0 0 
0 0 0 
0 0 0 
0 0 0 
0 0 0 
0 0 0 
0 0 0 
0 0 0 
0 0 0 
0 0 0 
0 0 0 
0 0 0 
0 0 0 
0 0 0 
0 0 0 
0 0 0 
0 0 0 
0 0 0 
0 0 0 
0 0 0 
0 0 0 
0.86290187 0.5053228 0.0070173717 
0.86436594 0.50281334 0.0070926845 
0.86664927 0.49886572 0.007209666 
0.8694205 0.49402127 0.007139038 
0 0 0 
0 0 0 
0 0 0 
0 0 0 
0 0 0 
0 0 0 
0 0 0 
0 0 0 
0 0 0 
0 0 0 
0 0 0 
0.8748904 0.48427275 0.006840971 
0.87050575 0.4921091 0.0069518182 
0.8699716 0.49304953 0.0071990187 
0.8706806 0.4917986 0.007043735 
0.87382305 0.4861914 0.007167875 
0.88050807 0.47398016 0.0069554555 
0 0 0 
0 0 0 
0 0 0 
0 0 0 
0 0 0 
0 0 0 
0 0 0 
0 0 0 
0 0 0 
0 0 0 
0.8786142 0.47748268 0.0068853693 
0.87485707 0.48432893 0.0071236114 
0.8728719 0.48789996 0.0069633876 
0.8727122 0.48818177 0.0072204517 
0.8742413 0.48544157 0.0069713965 
0.8788096 0.47712123 0.0070013567 
0 0 0 
0 0 0 
0 0 0 
0 0 0 
0 0 0 
0 0 0 
0 0 0 
0 0 0 
0 0 0 
0 0 0 
0.8823256 0.47058758 0.006996875 
0.8770786 0.4802963 0.006967444 
0.8742425 0.4854359 0.0072169513 
0.8728356 0.48796463 0.0069634514 
0.8733998 0.48695195 0.007124326 
0.8762448 0.48181704 0.006888088 
0 0 0 
0 0 0 
0 0 0 
0 0 0 
0 0 0 
0 0 0 
0 0 0 
0 0 0 
0 0 0 
0 0 0 
0.8850259 0.46548992 0.0069524767 
0.87800306 0.4786014 0.0071628187 
0.873645 0.48651305 0.007039869 
0.871324 0.4906555 0.0071918704 
0.8703074 0.4924599 0.0069511104 
0.8733621 0.4870234 0.006842368 
0 0 0 
0 0 0 
0 0 0 
0 0 0 
0 0 0 
0 0 0 
0 0 0 
0 0 0 
0 0 0 
0 0 0 
0 0 0 
0.8746878 0.48463422 0.0071349256 
0.8707346 0.4917005 0.007203413 
0.8667942 0.4986156 0.0070873965 
0.8639841 0.50347024 0.0070118564 
0 0 0 
0 0 0 
0 0 0 
0 0 0 
0 0 0 
0 0 0 
0 0 0 
0 0 0 
0 0 0 
0 0 0 
0 0 0 
0 0 0 
0 0 0 
0 0 0 
0 0 0 
0 0 0 
0 0 0 
0 0 0 
0 0 0 
0 0 0 
0 0 0 
0 0 0 
0 0 0 
0 0 0 
0 0 0 
0 0 0 
0 0 0 
0 0 0 
0 0 0 
0 0 0 
0 0 0 
0 0 0 
0 0 0 
0 0 0 
0 0 0 
0 0 0 
0 0 0 
0 0 0 
0 0 0 
0 0 0 
# End: Data Text
# End: Segment
