# t (s)	mx ()	my ()	mz ()	B_extx (T)	B_exty (T)	B_extz (T)
1e-12	0.86535794	0.50072557	0.013024491	0.31176916	0.18	0
1.598738711540373e-11	0.8653458	0.5007462	0.013038729	0.31176916	0.18	4.0329646e-06
3.0910986660660806e-11	0.86536264	0.50071687	0.013049223	0.31176916	0.18	-1.19742635e-05
4.519305578108151e-11	0.86538243	0.5006833	0.013019073	0.31176916	0.18	-4.3098894e-06
5.994717772811762e-11	0.86536556	0.5007135	0.012984416	0.31176916	0.18	1.1859856e-05
7.47853198042658e-11	0.8653356	0.50076485	0.013004375	0.31176916	0.18	4.097613e-06
8.929162215620846e-11	0.8653418	0.5007528	0.01304647	0.31176916	0.18	-1.1875841e-05
1.0408173154543567e-10	0.8653682	0.50070715	0.013048731	0.31176916	0.18	-4.261284e-06
1.1867497011960194e-10	0.8653675	0.50070906	0.013024376	0.31176916	0.18	1.1909841e-05
1.3362674902607595e-10	0.86535144	0.5007367	0.013024236	0.31176916	0.18	4.107366e-06
1.4844748651138004e-10	0.86536103	0.50071996	0.013032273	0.31176916	0.18	-1.2119974e-05
1.631643874626059e-10	0.86537534	0.500696	0.01300987	0.31176916	0.18	-3.960944e-06
1.777967447226255e-10	0.86535716	0.5007279	0.01299136	0.31176916	0.18	1.2141757e-05
1.9235760129931877e-10	0.86533266	0.5007694	0.013020691	0.31176916	0.18	4.260425e-06
2.0735747544209135e-10	0.8653475	0.50074244	0.013061872	0.31176916	0.18	-1.2254432e-05
2.2180643557153962e-10	0.865377	0.5006918	0.013049546	0.31176916	0.18	-4.229544e-06
2.367107879742583e-10	0.8653729	0.5007002	0.013009357	0.31176916	0.18	1.2279424e-05
2.510828175231983e-10	0.86535054	0.50073904	0.013005445	0.31176916	0.18	4.422861e-06
2.6591706706431246e-10	0.86535245	0.5007351	0.013024552	0.31176916	0.18	-1.22384245e-05
2.8072416882566353e-10	0.8653676	0.5007091	0.013019742	0.31176916	0.18	-4.140466e-06
2.9550838313435755e-10	0.8653557	0.50073004	0.013008682	0.31176916	0.18	1.2368624e-05
3.102730832253476e-10	0.8653375	0.50076056	0.013033513	0.31176916	0.18	3.976004e-06
3.2502036494906114e-10	0.86535484	0.5007296	0.013060132	0.31176916	0.18	-1.2462345e-05
3.392612832450563e-10	0.86538106	0.5006852	0.013035958	0.31176916	0.18	-4.5520055e-06
3.5398200000181765e-10	0.8653715	0.5007029	0.012996547	0.31176916	0.18	1.23088585e-05
3.686918474871298e-10	0.865344	0.5007506	0.013000805	0.31176916	0.18	4.546056e-06
3.8339282699557956e-10	0.86534643	0.50074565	0.013031272	0.31176916	0.18	-1.23593445e-05
3.980849628514147e-10	0.8653655	0.5007122	0.01303356	0.31176916	0.18	-4.589565e-06
4.1277009232093366e-10	0.86535984	0.50072217	0.013020442	0.31176916	0.18	1.2393686e-05
4.2793880061148174e-10	0.8653451	0.5007472	0.013032248	0.31176916	0.18	4.017082e-06
4.426134243722779e-10	0.86535937	0.50072247	0.013046292	0.31176916	0.18	-1.264705e-05
4.572835318120408e-10	0.8653799	0.5006878	0.013021166	0.31176916	0.18	-4.1245808e-06
4.719493658514425e-10	0.86536455	0.5007152	0.012991139	0.31176916	0.18	1.2666421e-05
4.866118863796602e-10	0.8653374	0.50076157	0.013009338	0.31176916	0.18	4.2549336e-06
5.012711402510298e-10	0.8653456	0.50074625	0.013045751	0.31176916	0.18	-1.267856e-05
5.159282906675785e-10	0.8653703	0.5007034	0.0130419545	0.31176916	0.18	-4.402228e-06
5.305825183620582e-10	0.8653655	0.5007122	0.013017488	0.31176916	0.18	1.2684638e-05
5.452358249363506e-10	0.8653475	0.5007435	0.013022799	0.31176916	0.18	4.5623237e-06
5.598879753574904e-10	0.86535764	0.5007259	0.013037673	0.31176916	0.18	-1.2686356e-05
5.745386269466053e-10	0.8653761	0.5006946	0.013018225	0.31176916	0.18	-4.7296176e-06
5.896757540241341e-10	0.86535925	0.5007242	0.012996271	0.31176916	0.18	1.2918158e-05
6.043234505720048e-10	0.86533535	0.50076437	0.01302111	0.31176916	0.18	4.2387605e-06
6.18970593935402e-10	0.865349	0.5007399	0.013055078	0.31176916	0.18	-1.2920182e-05
6.336167875915966e-10	0.8653764	0.5006929	0.013041061	0.31176916	0.18	-4.4206536e-06
6.482629950914465e-10	0.8653691	0.5007066	0.013007148	0.31176916	0.18	1.2919019e-05
6.629074207888349e-10	0.8653458	0.5007471	0.013012066	0.31176916	0.18	4.607126e-06
6.775521427489534e-10	0.86535263	0.5007347	0.013035087	0.31176916	0.18	-1.2914099e-05
6.92196044995642e-10	0.8653722	0.500701	0.013024649	0.31176916	0.18	-4.7972003e-06
7.073279066784907e-10	0.86535907	0.50072396	0.013003095	0.31176916	0.18	1.3144543e-05
7.219711758051266e-10	0.86533725	0.5007609	0.01302525	0.31176916	0.18	4.3115106e-06
7.366141882841024e-10	0.8653519	0.50073487	0.013054882	0.31176916	0.18	-1.3143632e-05
7.512576119044961e-10	0.8653789	0.500689	0.013036551	0.31176916	0.18	-4.5065835e-06
7.659011151815417e-10	0.8653695	0.5007066	0.013000798	0.31176916	0.18	1.314066e-05
7.805436250239812e-10	0.8653433	0.50075155	0.013008085	0.31176916	0.18	4.703142e-06
7.951854570499639e-10	0.86534923	0.5007404	0.013036713	0.31176916	0.18	-1.3133984e-05
8.098277867068871e-10	0.8653705	0.5007035	0.01303075	0.31176916	0.18	-4.903167e-06
8.249574064525149e-10	0.8653614	0.5007197	0.013008055	0.31176916	0.18	1.33684725e-05
8.39599947958264e-10	0.8653403	0.5007558	0.0130242035	0.31176916	0.18	4.4138947e-06
8.542414306461412e-10	0.8653535	0.50073254	0.013049927	0.31176916	0.18	-1.3367104e-05
8.688823844838417e-10	0.86537856	0.50069	0.013031836	0.31176916	0.18	-4.618476e-06
8.835240124383862e-10	0.8653676	0.50070983	0.012999196	0.31176916	0.18	1.3362493e-05
8.981655456007592e-10	0.86534137	0.5007547	0.013009902	0.31176916	0.18	4.8229563e-06
9.128071778839177e-10	0.86534834	0.50074154	0.013039914	0.31176916	0.18	-1.3355594e-05
9.279366289414076e-10	0.8653713	0.5007018	0.013034008	0.31176916	0.18	-4.326335e-06
9.425780378489617e-10	0.86536276	0.50071734	0.013011375	0.31176916	0.18	1.3596193e-05
9.572183022582364e-10	0.8653427	0.50075203	0.01302435	0.31176916	0.18	4.535073e-06
9.718594346889053e-10	0.86535543	0.5007297	0.013046198	0.31176916	0.18	-1.359399e-05
9.86500064955151e-10	0.8653783	0.5006904	0.013026576	0.31176916	0.18	-4.744682e-06
1.001139883033241e-09	0.8653651	0.50071394	0.012996543	0.31176916	0.18	1.3588626e-05
1.0157806337465929e-09	0.8653384	0.5007595	0.013012416	0.31176916	0.18	4.9569994e-06
1.030420459704384e-09	0.8653476	0.50074255	0.013045586	0.31176916	0.18	-1.3580598e-05
1.0455493627538927e-09	0.8653723	0.5007001	0.013036427	0.31176916	0.18	-4.4560243e-06
1.0601892612538617e-09	0.86536425	0.5007149	0.013012019	0.31176916	0.18	1.38275345e-05
1.0748297304215527e-09	0.865344	0.5007499	0.013023281	0.31176916	0.18	4.6708774e-06
1.0894697491638365e-09	0.8653563	0.5007281	0.013043327	0.31176916	0.18	-1.3825144e-05
1.1041102637518945e-09	0.865378	0.5006908	0.013022271	0.31176916	0.18	-4.886532e-06
1.1187508192882725e-09	0.86536264	0.50071776	0.012993913	0.31176916	0.18	1.3820314e-05
1.1333916286098777e-09	0.86533517	0.5007649	0.013015044	0.31176916	0.18	5.1019824e-06
1.148520601625956e-09	0.8653484	0.50074106	0.013052718	0.31176916	0.18	-1.4066884e-05
1.1631613853762137e-09	0.8653764	0.5006935	0.013040116	0.31176916	0.18	-4.5915426e-06
1.1778026632922848e-09	0.8653682	0.5007085	0.0130081	0.31176916	0.18	1.406839e-05
1.1924432887134794e-09	0.8653446	0.50074905	0.013015493	0.31176916	0.18	4.808486e-06
1.2070833935756734e-09	0.86535376	0.5007323	0.013038032	0.31176916	0.18	-1.4066494e-05
1.2217235505592455e-09	0.86537474	0.5006963	0.013022588	0.31176916	0.18	-5.028992e-06
1.2363641217050422e-09	0.86536056	0.5007214	0.012998746	0.31176916	0.18	1.4061812e-05
1.2510048388762966e-09	0.8653353	0.50076485	0.013021497	0.31176916	0.18	5.24903e-06
1.266132987645128e-09	0.86535084	0.5007371	0.013059249	0.31176916	0.18	-1.4315705e-05
1.2807738639273e-09	0.8653811	0.50068533	0.013040159	0.31176916	0.18	-4.731433e-06
1.295414631600233e-09	0.8653713	0.50070316	0.0129999705	0.31176916	0.18	1.4317462e-05
1.3100559410973033e-09	0.8653429	0.5007519	0.013005337	0.31176916	0.18	4.952655e-06
1.3246970366939645e-09	0.8653484	0.5007415	0.01303459	0.31176916	0.18	-1.431687e-05
1.339338068534092e-09	0.8653703	0.50070393	0.013029129	0.31176916	0.18	-5.174952e-06
1.3539785869050175e-09	0.8653604	0.5007217	0.013010132	0.31176916	0.18	1.4313042e-05
1.3691084556154698e-09	0.86533856	0.500759	0.0130291395	0.31176916	0.18	4.6454093e-06
1.3837486809132324e-09	0.86535525	0.50072956	0.013055522	0.31176916	0.18	-1.4575602e-05
1.3983888853525535e-09	0.86538285	0.5006824	0.013030896	0.31176916	0.18	-4.872702e-06
1.4130296733819133e-09	0.865369	0.50070715	0.01299153	0.31176916	0.18	1.4577616e-05
1.4276701923373356e-09	0.86533797	0.5007604	0.0130037945	0.31176916	0.18	5.099862e-06
1.4423105372982028e-09	0.8653446	0.500748	0.01304125	0.31176916	0.18	-1.4576719e-05
1.4569505413600025e-09	0.8653703	0.5007038	0.013039171	0.31176916	0.18	-5.3297226e-06
1.4715905597354659e-09	0.8653642	0.5007151	0.013016638	0.31176916	0.18	1.4572459e-05
1.4867189440969402e-09	0.8653446	0.5007488	0.013026349	0.31176916	0.18	4.7944304e-06
1.501359445056617e-09	0.8653582	0.5007248	0.013043665	0.31176916	0.18	-1.4842945e-05
1.5159989169515713e-09	0.8653801	0.5006871	0.013018805	0.31176916	0.18	-5.0273843e-06
1.530638970334961e-09	0.86536247	0.5007186	0.012989061	0.31176916	0.18	1.4844697e-05
1.5452794996732592e-09	0.86533254	0.50076944	0.013013707	0.31176916	0.18	5.260666e-06
1.559919637568999e-09	0.8653452	0.50074667	0.0130556645	0.31176916	0.18	-1.4844148e-05
1.5745599162394653e-09	0.86537665	0.50069284	0.01304593	0.31176916	0.18	-5.495482e-06
1.5896886902159075e-09	0.8653695	0.500706	0.013011347	0.31176916	0.18	1.5114412e-05
1.6043298786047515e-09	0.8653458	0.5007466	0.013015559	0.31176916	0.18	4.9486125e-06
1.6189708540698902e-09	0.86535525	0.5007299	0.013034861	0.31176916	0.18	-1.5121124e-05
1.633611890912992e-09	0.8653751	0.5006958	0.01301754	0.31176916	0.18	-5.1834495e-06
1.6482528139545508e-09	0.86535823	0.5007257	0.012996499	0.31176916	0.18	1.5124874e-05
1.6628927958807223e-09	0.8653321	0.50077	0.013025703	0.31176916	0.18	5.421434e-06
1.6775331854393625e-09	0.8653498	0.5007386	0.013063724	0.31176916	0.18	-1.5124797e-05
1.6926609449346827e-09	0.86538345	0.5006811	0.013039545	0.31176916	0.18	-4.866744e-06
1.707301118807382e-09	0.8653717	0.5007026	0.012996336	0.31176916	0.18	1.5403495e-05
1.7219408837240851e-09	0.865341	0.5007552	0.013004113	0.31176916	0.18	5.108892e-06
1.7365809287282144e-09	0.8653478	0.50074255	0.013036464	0.31176916	0.18	-1.5409703e-05
1.7512207863610512e-09	0.8653717	0.5007017	0.01302994	0.31176916	0.18	-5.3525523e-06
1.7658611568115078e-09	0.8653607	0.50072134	0.013009028	0.31176916	0.18	1.5413143e-05
1.780501156535874e-09	0.86533797	0.50076	0.013029245	0.31176916	0.18	5.596876e-06
1.795141222743417e-09	0.8653547	0.50073016	0.013056694	0.31176916	0.18	-1.5413461e-05
1.8102691258318202e-09	0.86538535	0.5006779	0.013028532	0.31176916	0.18	-5.0327535e-06
1.8249088033926483e-09	0.86536866	0.5007078	0.012986285	0.31176916	0.18	1.5701744e-05
1.8395482679763182e-09	0.86533475	0.50076616	0.013003145	0.31176916	0.18	5.2818373e-06
1.854188309977121e-09	0.8653434	0.5007503	0.01304633	0.31176916	0.18	-1.5708521e-05
1.868828702449225e-09	0.8653727	0.50069946	0.013043131	0.31176916	0.18	-5.5302835e-06
1.8834689780036868e-09	0.8653666	0.5007109	0.013014752	0.31176916	0.18	1.5712922e-05
1.898109082847901e-09	0.8653438	0.50075006	0.013022813	0.31176916	0.18	5.7803286e-06
1.9132378573865e-09	0.86535645	0.5007275	0.013044565	0.31176916	0.18	-1.6002119e-05
1.9278799590630724e-09	0.86538076	0.50068617	0.013020717	0.31176916	0.18	-5.2011624e-06
1.9425212872333296e-09	0.8653629	0.5007179	0.012989588	0.31176916	0.18	1.6015101e-05
1.9571629401205485e-09	0.86533207	0.5007707	0.013014471	0.31176916	0.18	5.4495767e-06
1.971804499290462e-09	0.8653457	0.5007459	0.01305693	0.31176916	0.18	-1.6025066e-05
1.9864457621814904e-09	0.86537844	0.5006896	0.013044931	0.31176916	0.18	-5.69987e-06
2.0010864495387962e-09	0.8653707	0.5007039	0.013007134	0.31176916	0.18	1.6031308e-05
2.0157275213833638e-09	0.8653434	0.5007508	0.013012416	0.31176916	0.18	5.9535732e-06
2.0308559596433672e-09	0.86535263	0.5007343	0.013036566	0.31176916	0.18	-1.6330785e-05
2.045496577456963e-09	0.86537534	0.5006955	0.013022135	0.31176916	0.18	-5.3666795e-06
2.0601378006248212e-09	0.8653598	0.50072306	0.012999645	0.31176916	0.18	1.634419e-05
2.074779720614447e-09	0.86533356	0.50076765	0.013025902	0.31176916	0.18	5.6208564e-06
2.089419801869412e-09	0.8653513	0.50073606	0.013060576	0.31176916	0.18	-1.6354672e-05
2.1040604218894204e-09	0.8653836	0.5006806	0.013037084	0.31176916	0.18	-5.880995e-06
2.1187010639064307e-09	0.8653707	0.500704	0.012994133	0.31176916	0.18	1.6361633e-05
2.133828905128995e-09	0.86533856	0.5007596	0.013007459	0.31176916	0.18	5.282775e-06
2.1484688878084763e-09	0.86534834	0.50074184	0.0130418	0.31176916	0.18	-1.6670761e-05
2.163109596332198e-09	0.8653748	0.5006963	0.013031311	0.31176916	0.18	-5.5458568e-06
2.1777503715029392e-09	0.8653623	0.5007185	0.0130056	0.31176916	0.18	1.6685271e-05
2.1923906371157387e-09	0.8653368	0.50076187	0.013025844	0.31176916	0.18	5.8101314e-06
2.207031633917553e-09	0.86535376	0.5007319	0.013055463	0.31176916	0.18	-1.6696551e-05
2.221672211654429e-09	0.86538416	0.50068015	0.01302969	0.31176916	0.18	-6.0752527e-06
2.236313339983836e-09	0.86536837	0.5007086	0.01298893	0.31176916	0.18	1.6704991e-05
2.2514420085626756e-09	0.86533314	0.5007688	0.013010483	0.31176916	0.18	5.463145e-06
2.266082033357189e-09	0.8653462	0.500745	0.013052371	0.31176916	0.18	-1.702595e-05
2.2807216588967167e-09	0.865378	0.50069034	0.013039736	0.31176916	0.18	-5.7347897e-06
2.2953618237402176e-09	0.8653674	0.50070965	0.013004604	0.31176916	0.18	1.7040862e-05
2.310002379527557e-09	0.8653391	0.50075823	0.013017347	0.31176916	0.18	6.00641e-06
2.324642684512048e-09	0.86535203	0.5007351	0.013047519	0.31176916	0.18	-1.7053244e-05
2.3392832338256098e-09	0.86538076	0.5006863	0.013028219	0.31176916	0.18	-6.2796917e-06
2.3544110209835938e-09	0.86536425	0.50071555	0.012991707	0.31176916	0.18	1.7374929e-05
2.3690517473548054e-09	0.8653324	0.5007699	0.013015376	0.31176916	0.18	5.6579715e-06
2.383691632683416e-09	0.8653474	0.50074273	0.013056475	0.31176916	0.18	-1.7395067e-05
2.398331784567297e-09	0.86538076	0.5006855	0.013040072	0.31176916	0.18	-5.935968e-06
2.4129722174582805e-09	0.8653695	0.5007062	0.013000455	0.31176916	0.18	1.7411987e-05
2.427612941070054e-09	0.8653387	0.50075924	0.01301195	0.31176916	0.18	6.213918e-06
2.4422533747442347e-09	0.8653498	0.5007393	0.013045082	0.31176916	0.18	-1.7426055e-05
2.456893888000044e-09	0.86537844	0.50069	0.013030302	0.31176916	0.18	-6.494275e-06
2.472022960026347e-09	0.86536455	0.5007148	0.012998075	0.31176916	0.18	1.7760873e-05
2.4866635123593874e-09	0.8653346	0.500766	0.013018253	0.31176916	0.18	5.8580226e-06
2.5013041320438004e-09	0.8653497	0.50073874	0.013054154	0.31176916	0.18	-1.7783173e-05
2.5159446954575986e-09	0.86538154	0.50068426	0.013034816	0.31176916	0.18	-6.1412766e-06
2.5305851741980738e-09	0.865368	0.50070894	0.01299684	0.31176916	0.18	1.7802171e-05
2.545226039134334e-09	0.86533636	0.5007634	0.013013068	0.31176916	0.18	6.426379e-06
2.5598669967315563e-09	0.865349	0.50074047	0.013049084	0.31176916	0.18	-1.7818453e-05
2.574995930355848e-09	0.8653795	0.50068796	0.013032421	0.31176916	0.18	-5.7753045e-06
2.589636488030641e-09	0.8653651	0.5007136	0.012998965	0.31176916	0.18	1.8166096e-05
2.6042769890479727e-09	0.865335	0.5007653	0.013018458	0.31176916	0.18	6.0642988e-06
2.6189172052221184e-09	0.8653506	0.50073755	0.013053397	0.31176916	0.18	-1.8190158e-05
2.6335580804056137e-09	0.86538225	0.50068337	0.013032606	0.31176916	0.18	-6.3555253e-06
2.6481986158828992e-09	0.8653673	0.5007103	0.012994862	0.31176916	0.18	1.821141e-05
2.6628393706802024e-09	0.8653346	0.50076646	0.013014068	0.31176916	0.18	6.648653e-06
2.6774798196837703e-09	0.8653485	0.50074106	0.013052537	0.31176916	0.18	-1.8229217e-05
2.6926077983123166e-09	0.8653811	0.5006849	0.013031341	0.31176916	0.18	-5.986766e-06
2.7072483407898257e-09	0.86536527	0.50071347	0.012995662	0.31176916	0.18	1.858991e-05
2.721888971119675e-09	0.8653334	0.50076824	0.013017398	0.31176916	0.18	6.2836402e-06
2.73653010120136e-09	0.8653496	0.5007393	0.013056025	0.31176916	0.18	-1.8616916e-05
2.751170827923803e-09	0.86538357	0.5006812	0.013035043	0.31176916	0.18	-6.581593e-06
2.765810989103264e-09	0.8653688	0.5007077	0.012993735	0.31176916	0.18	1.8640014e-05
2.7804519277727777e-09	0.86533415	0.5007669	0.01301111	0.31176916	0.18	6.8834834e-06
2.795581183879464e-09	0.8653491	0.5007399	0.013052641	0.31176916	0.18	-1.9003834e-05
2.810221978859798e-09	0.8653817	0.50068414	0.013032989	0.31176916	0.18	-6.2040754e-06
2.8248632807070664e-09	0.8653661	0.5007122	0.012995727	0.31176916	0.18	1.9036934e-05
2.839504426910412e-09	0.86533326	0.50076866	0.013017021	0.31176916	0.18	6.5069225e-06
2.854145266500719e-09	0.8653494	0.5007396	0.013056574	0.31176916	0.18	-1.90667e-05
2.868786576806144e-09	0.86538434	0.5006798	0.013035283	0.31176916	0.18	-6.812966e-06
2.8834272974550765e-09	0.8653693	0.5007065	0.012992153	0.31176916	0.18	1.909319e-05
2.898068151877092e-09	0.86533344	0.5007682	0.0130091235	0.31176916	0.18	7.122771e-06
2.9131969448759835e-09	0.8653466	0.50074416	0.0130536165	0.31176916	0.18	-1.9471372e-05
2.9278382669953624e-09	0.86538124	0.50068504	0.01303767	0.31176916	0.18	-6.4281276e-06
2.942478807454188e-09	0.8653677	0.50070953	0.0129994545	0.31176916	0.18	1.950727e-05
2.9571191723698795e-09	0.86533517	0.5007652	0.013016851	0.31176916	0.18	6.7431974e-06
2.9717598767395634e-09	0.86535054	0.50073755	0.013052757	0.31176916	0.18	-1.9539264e-05
2.986400612193949e-09	0.86538374	0.50068057	0.013030611	0.31176916	0.18	-7.059923e-06
3.0010415957618424e-09	0.8653671	0.5007104	0.012990509	0.31176916	0.18	1.9568346e-05
3.016170308515502e-09	0.86533046	0.50077325	0.013012544	0.31176916	0.18	6.3493226e-06
3.0308113395955575e-09	0.86534643	0.50074464	0.013057135	0.31176916	0.18	-1.9962397e-05
3.0454524574255896e-09	0.86538273	0.50068235	0.013040018	0.31176916	0.18	-6.6684415e-06
3.060093599698548e-09	0.8653695	0.50070643	0.012998812	0.31176916	0.18	2.0001815e-05
3.0747348348155953e-09	0.86533576	0.5007641	0.013013938	0.31176916	0.18	6.990019e-06
3.089375861755633e-09	0.86535025	0.50073814	0.013049316	0.31176916	0.18	-2.0037905e-05
3.1040167960646308e-09	0.86538255	0.50068265	0.013028107	0.31176916	0.18	-7.315437e-06
3.118657531750602e-09	0.86536485	0.50071424	0.012991411	0.31176916	0.18	2.0070143e-05
3.1337868838690024e-09	0.8653299	0.50077426	0.013019411	0.31176916	0.18	6.587416e-06
3.1484271765279796e-09	0.8653491	0.50074005	0.013061834	0.31176916	0.18	-2.0480828e-05
3.163067941454907e-09	0.86538655	0.5006756	0.013037381	0.31176916	0.18	-6.918906e-06
3.1777085142018872e-09	0.8653704	0.50070465	0.012990991	0.31176916	0.18	2.0523188e-05
3.192349211466626e-09	0.86533296	0.50076914	0.013008613	0.31176916	0.18	7.2530897e-06
3.2069896456105493e-09	0.8653468	0.50074416	0.013051022	0.31176916	0.18	-2.0561953e-05
3.2216297650080194e-09	0.86538196	0.50068396	0.013033921	0.31176916	0.18	-7.592014e-06
3.2367577184182368e-09	0.86536425	0.50071543	0.012996357	0.31176916	0.18	2.0975256e-05
3.251397960634712e-09	0.8653309	0.50077254	0.0130223865	0.31176916	0.18	6.850979e-06
3.2660382503924355e-09	0.8653512	0.5007361	0.013061967	0.31176916	0.18	-2.1024303e-05
3.2806779904574716e-09	0.8653889	0.5006717	0.013032739	0.31176916	0.18	-7.1954983e-06
3.2953185140005514e-09	0.8653698	0.5007059	0.012984058	0.31176916	0.18	2.1069663e-05
3.309958677485267e-09	0.86532897	0.5007761	0.013006384	0.31176916	0.18	7.5419302e-06
3.3245988439014603e-09	0.8653435	0.5007498	0.013056688	0.31176916	0.18	-2.1111531e-05
3.339239681679014e-09	0.86538273	0.50068235	0.013042376	0.31176916	0.18	-7.891046e-06
3.354368476717486e-09	0.8653683	0.5007084	0.012997009	0.31176916	0.18	2.1545009e-05
3.369009441654458e-09	0.8653328	0.50076926	0.013016853	0.31176916	0.18	7.128552e-06
3.383650508759455e-09	0.8653504	0.5007374	0.013055805	0.31176916	0.18	-2.1599524e-05
3.398291508672427e-09	0.86538696	0.5006751	0.013029889	0.31176916	0.18	-7.4798695e-06
3.412932128461686e-09	0.8653677	0.50070983	0.012985443	0.31176916	0.18	2.1650309e-05
3.427572554715149e-09	0.86532736	0.5007789	0.013011346	0.31176916	0.18	7.837168e-06
3.442212868369483e-09	0.8653443	0.5007483	0.013062144	0.31176916	0.18	-2.1696855e-05
3.457341267201033e-09	0.8653871	0.5006747	0.013042812	0.31176916	0.18	-7.057021e-06
3.471982030202871e-09	0.8653717	0.50070244	0.012993471	0.31176916	0.18	2.2149961e-05
3.486622287260742e-09	0.86533296	0.5007691	0.013009327	0.31176916	0.18	7.4190993e-06
3.501262862556315e-09	0.8653478	0.5007422	0.013050964	0.31176916	0.18	-2.2208442e-05
3.515903558791815e-09	0.86538404	0.5006803	0.013031111	0.31176916	0.18	-7.78446e-06
3.5305437958416585e-09	0.865366	0.5007126	0.012991704	0.31176916	0.18	2.2263499e-05
3.545184141473453e-09	0.86532825	0.5007771	0.01301827	0.31176916	0.18	8.15536e-06
3.559824282324986e-09	0.8653478	0.50074214	0.013064115	0.31176916	0.18	-2.2314594e-05
3.5749532326835965e-09	0.86538935	0.50067085	0.013037695	0.31176916	0.18	-7.3543924e-06
3.5895940277783146e-09	0.865371	0.5007037	0.012987322	0.31176916	0.18	2.2789847e-05
3.604235193587861e-09	0.86532974	0.50077456	0.013007611	0.31176916	0.18	7.726987e-06
3.6188761004965406e-09	0.8653458	0.5007461	0.013054664	0.31176916	0.18	-2.2854802e-05
3.633516977648014e-09	0.8653846	0.50067943	0.013035935	0.31176916	0.18	-8.104175e-06
3.6481571901396492e-09	0.8653675	0.50070983	0.012993975	0.31176916	0.18	2.2915448e-05
3.6627979928395205e-09	0.8653293	0.5007751	0.013018224	0.31176916	0.18	8.487445e-06
3.6779267191327526e-09	0.86535054	0.50073725	0.013060902	0.31176916	0.18	-2.3396982e-05
3.692567630461187e-09	0.86539	0.50066996	0.013031061	0.31176916	0.18	-7.663996e-06
3.70720795290225e-09	0.8653685	0.5007084	0.012982932	0.31176916	0.18	2.3470828e-05
3.721848501807714e-09	0.8653259	0.5007814	0.013010766	0.31176916	0.18	8.052982e-06
3.736488867101264e-09	0.8653448	0.5007473	0.013062998	0.31176916	0.18	-2.3540944e-05
3.751128856555226e-09	0.865388	0.5006733	0.013040786	0.31176916	0.18	-8.447773e-06
3.765769128834181e-09	0.8653711	0.50070363	0.012990633	0.31176916	0.18	2.3606923e-05
3.7808966732839326e-09	0.86532897	0.5007758	0.0130148595	0.31176916	0.18	7.6058805e-06
3.795536558296401e-09	0.86534894	0.50074005	0.013059402	0.31176916	0.18	-2.4111032e-05
3.810176231586879e-09	0.86538935	0.50067097	0.013031702	0.31176916	0.18	-8.00824e-06
3.824816416628306e-09	0.86536807	0.50070924	0.012983935	0.31176916	0.18	2.4190393e-05
3.839455971357879e-09	0.8653249	0.50078315	0.013013032	0.31176916	0.18	8.414975e-06
3.854095749221095e-09	0.8653452	0.50074655	0.0130661605	0.31176916	0.18	-2.4265702e-05
3.868736259577667e-09	0.8653903	0.500669	0.01304115	0.31176916	0.18	-8.825178e-06
3.883376135090068e-09	0.8653726	0.50070095	0.012986747	0.31176916	0.18	2.4338366e-05
3.898504587435172e-09	0.8653264	0.5007803	0.01300964	0.31176916	0.18	7.958838e-06
3.913145498208581e-09	0.8653458	0.5007456	0.013061012	0.31176916	0.18	-2.4870858e-05
3.927786655809056e-09	0.86538917	0.5006713	0.013037148	0.31176916	0.18	-8.370229e-06
3.9424269683522835e-09	0.8653698	0.50070614	0.012987353	0.31176916	0.18	2.4959176e-05
3.957066775963817e-09	0.8653262	0.5007806	0.013012472	0.31176916	0.18	8.792018e-06
3.971706943225639e-09	0.8653458	0.50074536	0.013063247	0.31176916	0.18	-2.5042638e-05
3.986347631876283e-09	0.86539036	0.50066906	0.013037875	0.31176916	0.18	-9.217136e-06
4.001476273561227e-09	0.8653703	0.5007053	0.0129833035	0.31176916	0.18	2.5584708e-05
4.016117051992612e-09	0.86532515	0.5007829	0.013009905	0.31176916	0.18	8.323104e-06
4.030758550541287e-09	0.8653452	0.50074685	0.013063383	0.31176916	0.18	-2.5685713e-05
4.045399229702588e-09	0.86539036	0.5006693	0.013038985	0.31176916	0.18	-8.750903e-06
4.060040338867582e-09	0.8653709	0.500704	0.012986829	0.31176916	0.18	2.5783016e-05
4.074680379626736e-09	0.8653261	0.5007809	0.013011006	0.31176916	0.18	9.187181e-06
4.089320797086546e-09	0.8653455	0.50074595	0.013062221	0.31176916	0.18	-2.5875635e-05
4.103961582357238e-09	0.8653906	0.5006689	0.013036795	0.31176916	0.18	-9.629055e-06
4.119090317705354e-09	0.8653695	0.5007066	0.012985543	0.31176916	0.18	2.6447711e-05
4.1337318287835904e-09	0.8653249	0.5007832	0.013013401	0.31176916	0.18	8.706246e-06
4.148373703637369e-09	0.8653467	0.500744	0.0130649805	0.31176916	0.18	-2.6559603e-05
4.163015451274176e-09	0.86539257	0.50066537	0.013035946	0.31176916	0.18	-9.148014e-06
4.1776564433460615e-09	0.8653705	0.5007048	0.01298175	0.31176916	0.18	2.6667782e-05
4.192298498361531e-09	0.8653229	0.5007863	0.013010396	0.31176916	0.18	9.59754e-06
4.206939445051319e-09	0.865344	0.5007486	0.01306705	0.31176916	0.18	-2.6773057e-05
4.222068446847773e-09	0.8653924	0.5006656	0.013038017	0.31176916	0.18	-8.646494e-06
4.236709204947569e-09	0.8653705	0.50070494	0.012984373	0.31176916	0.18	2.7377417e-05
4.251350912919654e-09	0.865324	0.5007844	0.013012382	0.31176916	0.18	9.104501e-06
4.265991985957275e-09	0.86534643	0.50074434	0.013065279	0.31176916	0.18	-2.750009e-05
4.2806320289977475e-09	0.8653936	0.5006637	0.013034848	0.31176916	0.18	-9.573084e-06
4.295272725530809e-09	0.8653701	0.5007056	0.012979455	0.31176916	0.18	2.7617587e-05
4.3099127074340985e-09	0.8653205	0.5007905	0.013011265	0.31176916	0.18	1.0049708e-05
4.324553256245732e-09	0.8653434	0.50074965	0.013071859	0.31176916	0.18	-2.7731568e-05
4.339681782762434e-09	0.8653964	0.5006588	0.013039214	0.31176916	0.18	-9.071346e-06
4.354322619730581e-09	0.86537284	0.50070095	0.012978382	0.31176916	0.18	2.8371132e-05
4.368962849636356e-09	0.8653218	0.50078833	0.013006416	0.31176916	0.18	9.554384e-06
4.383603215980093e-09	0.8653432	0.50075	0.013065735	0.31176916	0.18	-2.8504097e-05
4.398243598032125e-09	0.865393	0.5006646	0.013039527	0.31176916	0.18	-1.0045663e-05
4.4128839629791725e-09	0.8653713	0.5007035	0.012983073	0.31176916	0.18	2.863411e-05
4.427524569309276e-09	0.86532164	0.50078875	0.013012288	0.31176916	0.18	1.0543669e-05
4.4426532964318886e-09	0.8653467	0.5007437	0.013073048	0.31176916	0.18	-2.9289693e-05
4.457294734135969e-09	0.8653984	0.50065523	0.0130374255	0.31176916	0.18	-9.530236e-06
4.471934961602501e-09	0.86537313	0.5007006	0.012973644	0.31176916	0.18	2.9440795e-05
4.486575882162794e-09	0.8653189	0.5007936	0.013004226	0.31176916	0.18	1.0035914e-05
4.501216057773701e-09	0.8653406	0.5007544	0.013069341	0.31176916	0.18	-2.9588484e-05
4.515855539129492e-09	0.8653938	0.50066316	0.01304514	0.31176916	0.18	-1.0554295e-05
4.530496253215122e-09	0.86537373	0.5006993	0.012985451	0.31176916	0.18	2.9732228e-05
4.545136259197695e-09	0.8653231	0.5007861	0.013010703	0.31176916	0.18	1.1077484e-05
4.5602642782932255e-09	0.86534643	0.5007442	0.013067645	0.31176916	0.18	-3.0428202e-05
4.57490381414387e-09	0.8653972	0.50065726	0.013033791	0.31176916	0.18	-1.0038633e-05
4.589544306495746e-09	0.8653706	0.50070494	0.012973955	0.31176916	0.18	3.0593466e-05
4.604184023642581e-09	0.8653163	0.50079787	0.013009755	0.31176916	0.18	1.0572569e-05
4.618824623217012e-09	0.8653416	0.50075257	0.01307612	0.31176916	0.18	-3.0756317e-05
4.633465078983687e-09	0.865398	0.50065565	0.013045844	0.31176916	0.18	-1.1112562e-05
4.648105432910471e-09	0.86537623	0.50069517	0.0129792765	0.31176916	0.18	3.0917006e-05
4.66323418507477e-09	0.8653211	0.5007898	0.013005999	0.31176916	0.18	1.0032294e-05
4.6778747931819915e-09	0.8653444	0.5007479	0.013065192	0.31176916	0.18	-3.1660966e-05
4.692515447506703e-09	0.865396	0.5006595	0.013034256	0.31176916	0.18	-1.05809595e-05
4.707155307319525e-09	0.8653692	0.5007073	0.012977076	0.31176916	0.18	3.1845e-05
4.7217966839086965e-09	0.8653154	0.50079936	0.013015769	0.31176916	0.18	1.11392455e-05
4.736437006639334e-09	0.8653441	0.500748	0.013080817	0.31176916	0.18	-3.2028085e-05
4.751077369694637e-09	0.86540294	0.50064707	0.013042214	0.31176916	0.18	-1.1709168e-05
4.765717214039887e-09	0.8653771	0.50069356	0.012968947	0.31176916	0.18	3.2206928e-05
4.78084523125633e-09	0.8653159	0.5007987	0.013003088	0.31176916	0.18	1.0594502e-05
4.795485356365467e-09	0.8653409	0.5007539	0.013071542	0.31176916	0.18	-3.3000913e-05
4.8101256864699e-09	0.86539763	0.5006566	0.013041713	0.31176916	0.18	-1.1175662e-05
4.824766193392958e-09	0.8653721	0.50070214	0.0129787205	0.31176916	0.18	3.3206372e-05
4.839406118010023e-09	0.8653163	0.50079787	0.013013649	0.31176916	0.18	1.17675245e-05
4.854046749708764e-09	0.8653446	0.5007472	0.013078343	0.31176916	0.18	-3.3409466e-05
4.868687743615278e-09	0.86540425	0.5006451	0.013038382	0.31176916	0.18	-1.2366001e-05
4.88381643016444e-09	0.8653729	0.5007013	0.012963084	0.31176916	0.18	3.42329e-05
4.898456266286943e-09	0.86531055	0.500808	0.013004267	0.31176916	0.18	1.1207623e-05
4.913097248829901e-09	0.8653385	0.5007578	0.013081206	0.31176916	0.18	-3.4464316e-05
4.927737713653206e-09	0.8654015	0.50064963	0.013049493	0.31176916	0.18	-1.1818189e-05
4.942378736358821e-09	0.8653771	0.5006935	0.012976459	0.31176916	0.18	3.4695106e-05
4.957019893934009e-09	0.86531687	0.500797	0.013005637	0.31176916	0.18	1.2437835e-05
4.9716606563483275e-09	0.8653424	0.5007511	0.013072622	0.31176916	0.18	-3.4925066e-05
4.986301616332237e-09	0.86540234	0.5006486	0.013037302	0.31176916	0.18	-1.3071278e-05
5.0014302166204245e-09	0.8653719	0.50070304	0.012965164	0.31176916	0.18	3.5810222e-05
5.016071374539245e-09	0.86530876	0.50081104	0.013008684	0.31176916	0.18	1.1863258e-05
5.030711195475835e-09	0.8653394	0.5007559	0.013086432	0.31176916	0.18	-3.6069905e-05
5.045351866473615e-09	0.86540574	0.5006422	0.013049286	0.31176916	0.18	-1.2514168e-05
5.059992394370397e-09	0.86537945	0.5006898	0.01296983	0.31176916	0.18	3.6329024e-05
5.0746328110173984e-09	0.8653143	0.50080156	0.012999886	0.31176916	0.18	1.317661e-05
5.089273768462632e-09	0.8653394	0.5007565	0.0130729275	0.31176916	0.18	-3.6587568e-05
5.104402372506653e-09	0.8654028	0.5006476	0.013039545	0.31176916	0.18	-1.1920932e-05
5.119044107436794e-09	0.8653724	0.5007019	0.012970425	0.31176916	0.18	3.7543727e-05
5.133685583939045e-09	0.8653095	0.5008097	0.013012372	0.31176916	0.18	1.2587824e-05
5.148327417517966e-09	0.86534196	0.5007513	0.013086647	0.31176916	0.18	-3.783951e-05
5.162969248405354e-09	0.86540926	0.5006363	0.013042954	0.31176916	0.18	-1.3267264e-05