# OOMMF: rectangular mesh v1.0
# Segment count: 1
# Begin: Segment
# Begin: Header
# Desc: Time (s) :  8.530741547711823e-09
# Title: m
# meshtype: rectangular
# meshunit: m
# xbase: 2.5e-09
# ybase: 2.5e-09
# zbase: 2.25e-08
# xstepsize: 5e-09
# ystepsize: 5e-09
# zstepsize: 4.5e-08
# xmin: 0
# ymin: 0
# zmin: 0
# xmax: 8e-08
# ymax: 1.6e-07
# zmax: 4.5e-08
# xnodes: 16
# ynodes: 32
# znodes: 1
# ValueRangeMinMag: 1e-08
# ValueRangeMaxMag: 1
# valueunit: 
# valuemultiplier: 1
# End: Header
# Begin: Data Text
0 0 0 
0 0 0 
0 0 0 
0 0 0 
0 0 0 
0 0 0 
0 0 0 
0 0 0 
0 0 0 
0 0 0 
0 0 0 
0 0 0 
0 0 0 
0 0 0 
0 0 0 
0 0 0 
0 0 0 
0 0 0 
0 0 0 
0 0 0 
0 0 0 
0 0 0 
0 0 0 
0 0 0 
0 0 0 
0 0 0 
0 0 0 
0 0 0 
0 0 0 
0 0 0 
0 0 0 
0 0 0 
0 0 0 
0 0 0 
0 0 0 
0 0 0 
0 0 0 
0 0 0 
0 0 0 
0 0 0 
0 0 0 
0 0 0 
0 0 0 
0 0 0 
0 0 0 
0 0 0 
0 0 0 
0 0 0 
0 0 0 
0 0 0 
0 0 0 
0 0 0 
0 0 0 
0 0 0 
0 0 0 
0 0 0 
0 0 0 
0 0 0 
0 0 0 
0 0 0 
0 0 0 
0 0 0 
0 0 0 
0 0 0 
0 0 0 
0 0 0 
0 0 0 
0 0 0 
0 0 0 
0 0 0 
0 0 0 
0 0 0 
0 0 0 
0 0 0 
0 0 0 
0 0 0 
0 0 0 
0 0 0 
0 0 0 
0 0 0 
0 0 0 
0 0 0 
0 0 0 
0 0 0 
0 0 0 
0 0 0 
0 0 0 
0 0 0 
0 0 0 
0 0 0 
0 0 0 
0 0 0 
0 0 0 
0 0 0 
0 0 0 
0 0 0 
0 0 0 
0 0 0 
0 0 0 
0 0 0 
0 0 0 
0 0 0 
0.94587404 0.3204142 0.051546488 
0.94820875 0.313296 0.05240072 
0.9508886 0.30501002 0.052723788 
0 0 0 
0 0 0 
0 0 0 
0 0 0 
0 0 0 
0 0 0 
0 0 0 
0 0 0 
0 0 0 
0 0 0 
0 0 0 
0 0 0 
0.9483198 0.31335774 0.049965907 
0.94891816 0.31135234 0.05112704 
0.9501547 0.30740595 0.05203557 
0.952261 0.30071288 0.052638344 
0.9555167 0.29015237 0.052910287 
0 0 0 
0 0 0 
0 0 0 
0 0 0 
0 0 0 
0 0 0 
0 0 0 
0 0 0 
0 0 0 
0 0 0 
0.9536382 0.29726094 0.047012813 
0.95065534 0.30628696 0.049424507 
0.9501515 0.30761924 0.050817862 
0.9505556 0.30620623 0.051785953 
0.9515912 0.30284432 0.05253078 
0.95303345 0.29817465 0.053095996 
0 0 0 
0 0 0 
0 0 0 
0 0 0 
0 0 0 
0 0 0 
0 0 0 
0 0 0 
0 0 0 
0 0 0 
0.9548887 0.29317614 0.0472783 
0.9513755 0.30397934 0.049811315 
0.9502383 0.30731416 0.051041782 
0.9501011 0.30759394 0.051903766 
0.9504141 0.30651 0.052580927 
0.9505413 0.30603528 0.053044405 
0 0 0 
0 0 0 
0 0 0 
0 0 0 
0 0 0 
0 0 0 
0 0 0 
0 0 0 
0 0 0 
0 0 0 
0 0 0 
0.9513179 0.30390853 0.051322278 
0.9499036 0.3082258 0.051770132 
0.949265 0.3100902 0.052346595 
0.9491989 0.31021678 0.052792106 
0.9493286 0.30981925 0.052794904 
0 0 0 
0 0 0 
0 0 0 
0 0 0 
0 0 0 
0 0 0 
0 0 0 
0 0 0 
0 0 0 
0 0 0 
0 0 0 
0.95230144 0.30074665 0.05170489 
0.95006263 0.30763614 0.052355368 
0.94835556 0.3127834 0.052805185 
0.94665575 0.31784493 0.053080175 
0 0 0 
0 0 0 
0 0 0 
0 0 0 
0 0 0 
0 0 0 
0 0 0 
0 0 0 
0 0 0 
0 0 0 
0 0 0 
0 0 0 
0 0 0 
0 0 0 
0 0 0 
0 0 0 
0 0 0 
0 0 0 
0 0 0 
0 0 0 
0 0 0 
0 0 0 
0 0 0 
0 0 0 
0 0 0 
0 0 0 
0 0 0 
0 0 0 
0 0 0 
0 0 0 
0 0 0 
0 0 0 
0 0 0 
0 0 0 
0 0 0 
0 0 0 
0 0 0 
0 0 0 
0 0 0 
0 0 0 
0 0 0 
0 0 0 
0 0 0 
0 0 0 
0 0 0 
0.9459186 0.32391658 0.017778104 
0.9474391 0.31944135 0.01779323 
0.9490739 0.31454644 0.017868726 
0 0 0 
0 0 0 
0 0 0 
0 0 0 
0 0 0 
0 0 0 
0 0 0 
0 0 0 
0 0 0 
0 0 0 
0 0 0 
0 0 0 
0.9519308 0.3058322 0.017160285 
0.95096344 0.30881467 0.017378714 
0.9510609 0.30849725 0.017681126 
0.9525105 0.3040014 0.017520767 
0.9557848 0.2935501 0.017428908 
0 0 0 
0 0 0 
0 0 0 
0 0 0 
0 0 0 
0 0 0 
0 0 0 
0 0 0 
0 0 0 
0 0 0 
0.9587786 0.28369775 0.016101576 
0.9555843 0.2942436 0.016716857 
0.9537192 0.30020127 0.017287113 
0.9532374 0.30173612 0.017142074 
0.9532084 0.3018116 0.017422143 
0.95470095 0.2970702 0.017190127 
0 0 0 
0 0 0 
0 0 0 
0 0 0 
0 0 0 
0 0 0 
0 0 0 
0 0 0 
0 0 0 
0 0 0 
0.9608566 0.2765798 0.016067717 
0.95755625 0.2877576 0.016781913 
0.9555664 0.29429483 0.016832622 
0.9538619 0.2997491 0.017266138 
0.95367527 0.30036166 0.016927332 
0.9544635 0.2978532 0.016821565 
0.95947707 0.28135034 0.01568014 
0 0 0 
0 0 0 
0 0 0 
0 0 0 
0 0 0 
0 0 0 
0 0 0 
0 0 0 
0 0 0 
0.9629879 0.26906148 0.016127804 
0.9594113 0.2815192 0.016645141 
0.95619863 0.29221833 0.017105654 
0.95398545 0.29937226 0.016976818 
0.9525214 0.30398834 0.017150106 
0.95151794 0.30713168 0.016843755 
0 0 0 
0 0 0 
0 0 0 
0 0 0 
0 0 0 
0 0 0 
0 0 0 
0 0 0 
0 0 0 
0 0 0 
0 0 0 
0.9599125 0.27978465 0.01698832 
0.9567653 0.29035863 0.017091759 
0.9521768 0.30505505 0.017343022 
0.9507682 0.30943432 0.017038314 
0.9484624 0.3164472 0.016738603 
0 0 0 
0 0 0 
0 0 0 
0 0 0 
0 0 0 
0 0 0 
0 0 0 
0 0 0 
0 0 0 
0 0 0 
0 0 0 
0 0 0 
0 0 0 
0.9461821 0.32315424 0.017631732 
0 0 0 
0 0 0 
0 0 0 
0 0 0 
0 0 0 
0 0 0 
0 0 0 
0 0 0 
0 0 0 
0 0 0 
0 0 0 
0 0 0 
0 0 0 
0 0 0 
0 0 0 
0 0 0 
0 0 0 
0 0 0 
0 0 0 
0 0 0 
0 0 0 
0 0 0 
0 0 0 
0 0 0 
0 0 0 
0 0 0 
0 0 0 
0 0 0 
0 0 0 
0 0 0 
0 0 0 
0 0 0 
0 0 0 
0 0 0 
0 0 0 
0 0 0 
0 0 0 
0 0 0 
0 0 0 
0 0 0 
0 0 0 
0 0 0 
0 0 0 
0 0 0 
0 0 0 
0 0 0 
0 0 0 
0 0 0 
0 0 0 
0 0 0 
0 0 0 
0 0 0 
0 0 0 
0 0 0 
0 0 0 
0 0 0 
0 0 0 
0 0 0 
0 0 0 
0 0 0 
0.92404836 0.38185737 0.017877363 
0.9260932 0.37684995 0.01832031 
0.928758 0.37023053 0.018386025 
0.9314691 0.36335292 0.018442793 
0 0 0 
0 0 0 
0 0 0 
0 0 0 
0 0 0 
0 0 0 
0 0 0 
0 0 0 
0 0 0 
0 0 0 
0 0 0 
0.93116474 0.3641854 0.017355371 
0.92916685 0.3692208 0.01802935 
0.92968166 0.36792353 0.018010335 
0.9305151 0.36578846 0.01844941 
0.93310344 0.35915217 0.01810327 
0.937435 0.34770122 0.017876036 
0 0 0 
0 0 0 
0 0 0 
0 0 0 
0 0 0 
0 0 0 
0 0 0 
0 0 0 
0 0 0 
0 0 0 
0.9344617 0.35562387 0.017694356 
0.9325509 0.36060008 0.017786808 
0.9313178 0.36374554 0.01834322 
0.9313857 0.36359408 0.017893057 
0.9321837 0.36152735 0.018210595 
0.93512774 0.3538671 0.017724505 
0 0 0 
0 0 0 
0 0 0 
0 0 0 
0 0 0 
0 0 0 
0 0 0 
0 0 0 
0 0 0 
0 0 0 
0.93791497 0.3464123 0.01772331 
0.93432474 0.35595828 0.018195359 
0.9323398 0.36114195 0.017860794 
0.930886 0.36485142 0.01829647 
0.9308951 0.3648561 0.017731488 
0.9320652 0.36186105 0.017638523 
0 0 0 
0 0 0 
0 0 0 
0 0 0 
0 0 0 
0 0 0 
0 0 0 
0 0 0 
0 0 0 
0 0 0 
0.94058084 0.3391013 0.017831279 
0.935707 0.35231772 0.018022312 
0.93197334 0.36206254 0.018345509 
0.9297288 0.36781028 0.017891718 
0.9279446 0.37228775 0.017911116 
0.9290315 0.369598 0.017258486 
0 0 0 
0 0 0 
0 0 0 
0 0 0 
0 0 0 
0 0 0 
0 0 0 
0 0 0 
0 0 0 
0 0 0 
0 0 0 
0.934359 0.35586268 0.01830355 
0.93059653 0.3655923 0.018230965 
0.92651093 0.37582973 0.01815403 
0.9233519 0.3835462 0.017709896 
0 0 0 
0 0 0 
0 0 0 
0 0 0 
0 0 0 
0 0 0 
0 0 0 
0 0 0 
0 0 0 
0 0 0 
0 0 0 
0 0 0 
0 0 0 
0 0 0 
0 0 0 
0 0 0 
0 0 0 
0 0 0 
0 0 0 
0 0 0 
0 0 0 
0 0 0 
0 0 0 
0 0 0 
0 0 0 
0 0 0 
0 0 0 
0 0 0 
0 0 0 
0 0 0 
0 0 0 
0 0 0 
0 0 0 
0 0 0 
0 0 0 
0 0 0 
0 0 0 
0 0 0 
0 0 0 
0 0 0 
# End: Data Text
# End: Segment
