# OOMMF: rectangular mesh v1.0
# Segment count: 1
# Begin: Segment
# Begin: Header
# Desc: Time (s) :  2.8246870474682603e-09
# Title: m
# meshtype: rectangular
# meshunit: m
# xbase: 2.5e-09
# ybase: 2.5e-09
# zbase: 2.25e-08
# xstepsize: 5e-09
# ystepsize: 5e-09
# zstepsize: 4.5e-08
# xmin: 0
# ymin: 0
# zmin: 0
# xmax: 8e-08
# ymax: 1.6e-07
# zmax: 4.5e-08
# xnodes: 16
# ynodes: 32
# znodes: 1
# ValueRangeMinMag: 1e-08
# ValueRangeMaxMag: 1
# valueunit: 
# valuemultiplier: 1
# End: Header
# Begin: Data Text
0 0 0 
0 0 0 
0 0 0 
0 0 0 
0 0 0 
0 0 0 
0 0 0 
0 0 0 
0 0 0 
0 0 0 
0 0 0 
0 0 0 
0 0 0 
0 0 0 
0 0 0 
0 0 0 
0 0 0 
0 0 0 
0 0 0 
0 0 0 
0 0 0 
0 0 0 
0 0 0 
0 0 0 
0 0 0 
0 0 0 
0 0 0 
0 0 0 
0 0 0 
0 0 0 
0 0 0 
0 0 0 
0 0 0 
0 0 0 
0 0 0 
0 0 0 
0 0 0 
0 0 0 
0 0 0 
0 0 0 
0 0 0 
0 0 0 
0 0 0 
0 0 0 
0 0 0 
0 0 0 
0 0 0 
0 0 0 
0 0 0 
0 0 0 
0 0 0 
0 0 0 
0 0 0 
0 0 0 
0 0 0 
0 0 0 
0 0 0 
0 0 0 
0 0 0 
0 0 0 
0 0 0 
0 0 0 
0 0 0 
0 0 0 
0 0 0 
0 0 0 
0 0 0 
0 0 0 
0 0 0 
0 0 0 
0 0 0 
0 0 0 
0 0 0 
0 0 0 
0 0 0 
0 0 0 
0 0 0 
0 0 0 
0 0 0 
0 0 0 
0 0 0 
0 0 0 
0 0 0 
0 0 0 
0 0 0 
0 0 0 
0 0 0 
0 0 0 
0 0 0 
0 0 0 
0 0 0 
0 0 0 
0 0 0 
0 0 0 
0 0 0 
0 0 0 
0 0 0 
0 0 0 
0 0 0 
0 0 0 
0 0 0 
0 0 0 
0.93587697 0.3522465 0.0075227115 
0.9382454 0.34588736 0.007586827 
0.94103074 0.338236 0.0075910967 
0 0 0 
0 0 0 
0 0 0 
0 0 0 
0 0 0 
0 0 0 
0 0 0 
0 0 0 
0 0 0 
0 0 0 
0 0 0 
0 0 0 
0.9391621 0.34339616 0.0073313657 
0.9394683 0.3425551 0.007443073 
0.9406107 0.33940342 0.0075474605 
0.94275844 0.3333911 0.0075442456 
0.9463111 0.32316923 0.007546515 
0 0 0 
0 0 0 
0 0 0 
0 0 0 
0 0 0 
0 0 0 
0 0 0 
0 0 0 
0 0 0 
0 0 0 
0.9454895 0.3255797 0.0068880613 
0.9417639 0.33619764 0.007213524 
0.94090176 0.33859825 0.0074182763 
0.9410802 0.33810112 0.0074662524 
0.94210786 0.33522472 0.007567806 
0.9435965 0.3310107 0.0075882804 
0 0 0 
0 0 0 
0 0 0 
0 0 0 
0 0 0 
0 0 0 
0 0 0 
0 0 0 
0 0 0 
0 0 0 
0.9467782 0.3218128 0.006901764 
0.9424352 0.33430994 0.0072640367 
0.94087845 0.33866408 0.0073853363 
0.9405755 0.33950144 0.0075310185 
0.940778 0.33893898 0.0075577097 
0.94090414 0.3385872 0.007628994 
0 0 0 
0 0 0 
0 0 0 
0 0 0 
0 0 0 
0 0 0 
0 0 0 
0 0 0 
0 0 0 
0 0 0 
0 0 0 
0.9419595 0.33564496 0.0074146893 
0.94034827 0.34013066 0.0075037647 
0.9395203 0.34240994 0.0075513334 
0.93942577 0.34266746 0.0076387185 
0.9396654 0.34201038 0.0076092985 
0 0 0 
0 0 0 
0 0 0 
0 0 0 
0 0 0 
0 0 0 
0 0 0 
0 0 0 
0 0 0 
0 0 0 
0 0 0 
0.9427317 0.3334692 0.0074448064 
0.9402908 0.34028834 0.0075466232 
0.93843174 0.34538025 0.0076404233 
0.9365157 0.35054153 0.0076798154 
0 0 0 
0 0 0 
0 0 0 
0 0 0 
0 0 0 
0 0 0 
0 0 0 
0 0 0 
0 0 0 
0 0 0 
0 0 0 
0 0 0 
0 0 0 
0 0 0 
0 0 0 
0 0 0 
0 0 0 
0 0 0 
0 0 0 
0 0 0 
0 0 0 
0 0 0 
0 0 0 
0 0 0 
0 0 0 
0 0 0 
0 0 0 
0 0 0 
0 0 0 
0 0 0 
0 0 0 
0 0 0 
0 0 0 
0 0 0 
0 0 0 
0 0 0 
0 0 0 
0 0 0 
0 0 0 
0 0 0 
0 0 0 
0 0 0 
0 0 0 
0 0 0 
0 0 0 
0.9288919 0.37026685 0.0078955395 
0.93039125 0.36648574 0.00777228 
0.93218344 0.36189935 0.007926225 
0 0 0 
0 0 0 
0 0 0 
0 0 0 
0 0 0 
0 0 0 
0 0 0 
0 0 0 
0 0 0 
0 0 0 
0 0 0 
0 0 0 
0.9370018 0.34924188 0.007591261 
0.93524253 0.35392973 0.0074311197 
0.935402 0.35349518 0.008020856 
0.9367722 0.34985897 0.0075268345 
0.94086784 0.33868608 0.0077144178 
0 0 0 
0 0 0 
0 0 0 
0 0 0 
0 0 0 
0 0 0 
0 0 0 
0 0 0 
0 0 0 
0 0 0 
0.94576615 0.32477233 0.0070310114 
0.94133174 0.33740836 0.0070765372 
0.93910414 0.3435423 0.007894017 
0.93803144 0.34647635 0.0071570757 
0.9383698 0.34554172 0.007946536 
0.9399746 0.341163 0.0074515785 
0 0 0 
0 0 0 
0 0 0 
0 0 0 
0 0 0 
0 0 0 
0 0 0 
0 0 0 
0 0 0 
0 0 0 
0.9479974 0.3182042 0.006861768 
0.9439047 0.33013242 0.007518195 
0.94106466 0.33815482 0.00697289 
0.9394649 0.34255245 0.007968044 
0.93899876 0.34384662 0.007136527 
0.9405214 0.33964992 0.0075847977 
0.94710636 0.32084575 0.0068986537 
0 0 0 
0 0 0 
0 0 0 
0 0 0 
0 0 0 
0 0 0 
0 0 0 
0 0 0 
0 0 0 
0.9504273 0.3108683 0.006989861 
0.9457692 0.324764 0.007012242 
0.94219404 0.33497858 0.0077313604 
0.9393338 0.34293056 0.0071302457 
0.9381687 0.34609038 0.0078117293 
0.93713003 0.34890294 0.0073632896 
0 0 0 
0 0 0 
0 0 0 
0 0 0 
0 0 0 
0 0 0 
0 0 0 
0 0 0 
0 0 0 
0 0 0 
0 0 0 
0.9461714 0.32358167 0.00739764 
0.9425351 0.33402678 0.007325674 
0.93738776 0.3482006 0.007784948 
0.9360883 0.35168645 0.0074381293 
0.93393195 0.357373 0.007476092 
0 0 0 
0 0 0 
0 0 0 
0 0 0 
0 0 0 
0 0 0 
0 0 0 
0 0 0 
0 0 0 
0 0 0 
0 0 0 
0 0 0 
0 0 0 
0.92960674 0.36847168 0.0077512306 
0 0 0 
0 0 0 
0 0 0 
0 0 0 
0 0 0 
0 0 0 
0 0 0 
0 0 0 
0 0 0 
0 0 0 
0 0 0 
0 0 0 
0 0 0 
0 0 0 
0 0 0 
0 0 0 
0 0 0 
0 0 0 
0 0 0 
0 0 0 
0 0 0 
0 0 0 
0 0 0 
0 0 0 
0 0 0 
0 0 0 
0 0 0 
0 0 0 
0 0 0 
0 0 0 
0 0 0 
0 0 0 
0 0 0 
0 0 0 
0 0 0 
0 0 0 
0 0 0 
0 0 0 
0 0 0 
0 0 0 
0 0 0 
0 0 0 
0 0 0 
0 0 0 
0 0 0 
0 0 0 
0 0 0 
0 0 0 
0 0 0 
0 0 0 
0 0 0 
0 0 0 
0 0 0 
0 0 0 
0 0 0 
0 0 0 
0 0 0 
0 0 0 
0 0 0 
0 0 0 
0.9363433 0.35106546 0.0037804137 
0.93853533 0.34516117 0.0039027748 
0.94111574 0.3380632 0.0038296727 
0.94381803 0.3304432 0.0038693596 
0 0 0 
0 0 0 
0 0 0 
0 0 0 
0 0 0 
0 0 0 
0 0 0 
0 0 0 
0 0 0 
0 0 0 
0 0 0 
0.94242114 0.3344085 0.0036672342 
0.9410493 0.3382472 0.0038834494 
0.94152653 0.33691856 0.0037153447 
0.94267136 0.3336989 0.003970776 
0.94486266 0.32744554 0.003734307 
0.94876456 0.31596172 0.0037617867 
0 0 0 
0 0 0 
0 0 0 
0 0 0 
0 0 0 
0 0 0 
0 0 0 
0 0 0 
0 0 0 
0 0 0 
0.9456823 0.32507032 0.0037692306 
0.944001 0.32992208 0.0036692088 
0.94330746 0.33189625 0.0039990363 
0.94305164 0.33262652 0.0036540907 
0.94403976 0.32980818 0.003933364 
0.9464089 0.32294947 0.003709492 
0 0 0 
0 0 0 
0 0 0 
0 0 0 
0 0 0 
0 0 0 
0 0 0 
0 0 0 
0 0 0 
0 0 0 
0.9489541 0.31539267 0.0036920072 
0.9459994 0.32414478 0.0039202706 
0.9439334 0.33011588 0.003649373 
0.94292265 0.33298784 0.004004086 
0.94249296 0.33420566 0.003682703 
0.9434976 0.3313578 0.0037887774 
0 0 0 
0 0 0 
0 0 0 
0 0 0 
0 0 0 
0 0 0 
0 0 0 
0 0 0 
0 0 0 
0 0 0 
0.9516325 0.3072159 0.0037460343 
0.9472568 0.32045406 0.0037232903 
0.9440284 0.32984048 0.0039670453 
0.94159627 0.33672336 0.0037198686 
0.9399541 0.3412787 0.0038973317 
0.94047934 0.33983096 0.0036866092 
0 0 0 
0 0 0 
0 0 0 
0 0 0 
0 0 0 
0 0 0 
0 0 0 
0 0 0 
0 0 0 
0 0 0 
0 0 0 
0.94648284 0.32273123 0.0038604126 
0.94283646 0.3332339 0.00382441 
0.93896174 0.34399945 0.003906266 
0.935744 0.35265976 0.0037915963 
0 0 0 
0 0 0 
0 0 0 
0 0 0 
0 0 0 
0 0 0 
0 0 0 
0 0 0 
0 0 0 
0 0 0 
0 0 0 
0 0 0 
0 0 0 
0 0 0 
0 0 0 
0 0 0 
0 0 0 
0 0 0 
0 0 0 
0 0 0 
0 0 0 
0 0 0 
0 0 0 
0 0 0 
0 0 0 
0 0 0 
0 0 0 
0 0 0 
0 0 0 
0 0 0 
0 0 0 
0 0 0 
0 0 0 
0 0 0 
0 0 0 
0 0 0 
0 0 0 
0 0 0 
0 0 0 
0 0 0 
# End: Data Text
# End: Segment
