# OOMMF: rectangular mesh v1.0
# Segment count: 1
# Begin: Segment
# Begin: Header
# Desc: Time (s) :  4.192321610905688e-09
# Title: m
# meshtype: rectangular
# meshunit: m
# xbase: 2.5e-09
# ybase: 2.5e-09
# zbase: 2.25e-08
# xstepsize: 5e-09
# ystepsize: 5e-09
# zstepsize: 4.5e-08
# xmin: 0
# ymin: 0
# zmin: 0
# xmax: 8e-08
# ymax: 1.6e-07
# zmax: 4.5e-08
# xnodes: 16
# ynodes: 32
# znodes: 1
# ValueRangeMinMag: 1e-08
# ValueRangeMaxMag: 1
# valueunit: 
# valuemultiplier: 1
# End: Header
# Begin: Data Text
0 0 0 
0 0 0 
0 0 0 
0 0 0 
0 0 0 
0 0 0 
0 0 0 
0 0 0 
0 0 0 
0 0 0 
0 0 0 
0 0 0 
0 0 0 
0 0 0 
0 0 0 
0 0 0 
0 0 0 
0 0 0 
0 0 0 
0 0 0 
0 0 0 
0 0 0 
0 0 0 
0 0 0 
0 0 0 
0 0 0 
0 0 0 
0 0 0 
0 0 0 
0 0 0 
0 0 0 
0 0 0 
0 0 0 
0 0 0 
0 0 0 
0 0 0 
0 0 0 
0 0 0 
0 0 0 
0 0 0 
0 0 0 
0 0 0 
0 0 0 
0 0 0 
0 0 0 
0 0 0 
0 0 0 
0 0 0 
0 0 0 
0 0 0 
0 0 0 
0 0 0 
0 0 0 
0 0 0 
0 0 0 
0 0 0 
0 0 0 
0 0 0 
0 0 0 
0 0 0 
0 0 0 
0 0 0 
0 0 0 
0 0 0 
0 0 0 
0 0 0 
0 0 0 
0 0 0 
0 0 0 
0 0 0 
0 0 0 
0 0 0 
0 0 0 
0 0 0 
0 0 0 
0 0 0 
0 0 0 
0 0 0 
0 0 0 
0 0 0 
0 0 0 
0 0 0 
0 0 0 
0 0 0 
0 0 0 
0 0 0 
0 0 0 
0 0 0 
0 0 0 
0 0 0 
0 0 0 
0 0 0 
0 0 0 
0 0 0 
0 0 0 
0 0 0 
0 0 0 
0 0 0 
0 0 0 
0 0 0 
0 0 0 
0 0 0 
0.9358323 0.35236534 0.0075102905 
0.93820906 0.3459855 0.007597888 
0.94098663 0.33835894 0.0075794924 
0 0 0 
0 0 0 
0 0 0 
0 0 0 
0 0 0 
0 0 0 
0 0 0 
0 0 0 
0 0 0 
0 0 0 
0 0 0 
0 0 0 
0.9391206 0.3435098 0.007314005 
0.9394423 0.34262556 0.0074750413 
0.9405561 0.33955565 0.0075033396 
0.9427298 0.33347154 0.0075726565 
0.94626915 0.32329243 0.007535107 
0 0 0 
0 0 0 
0 0 0 
0 0 0 
0 0 0 
0 0 0 
0 0 0 
0 0 0 
0 0 0 
0 0 0 
0.9454541 0.32568267 0.006876329 
0.94173974 0.3362648 0.007242136 
0.9408442 0.33875972 0.007359095 
0.94106305 0.33814746 0.0075250333 
0.94205207 0.33538234 0.0075192777 
0.9435626 0.3311068 0.0076019852 
0 0 0 
0 0 0 
0 0 0 
0 0 0 
0 0 0 
0 0 0 
0 0 0 
0 0 0 
0 0 0 
0 0 0 
0.9467482 0.32190093 0.0069062184 
0.9423869 0.3344468 0.0072259177 
0.9408605 0.33871266 0.0074399034 
0.9405139 0.33967304 0.007466201 
0.9407548 0.33900264 0.007602393 
0.94085807 0.33871573 0.0076101613 
0 0 0 
0 0 0 
0 0 0 
0 0 0 
0 0 0 
0 0 0 
0 0 0 
0 0 0 
0 0 0 
0 0 0 
0 0 0 
0.9419278 0.33573332 0.007429791 
0.9402949 0.3402791 0.007461191 
0.93949634 0.34247488 0.0075932415 
0.9393735 0.34281155 0.007603609 
0.9396286 0.3421112 0.0076159127 
0 0 0 
0 0 0 
0 0 0 
0 0 0 
0 0 0 
0 0 0 
0 0 0 
0 0 0 
0 0 0 
0 0 0 
0 0 0 
0.9426903 0.33358622 0.0074357945 
0.9402559 0.34038463 0.0075579626 
0.9383855 0.34550637 0.007621915 
0.9364774 0.3506436 0.00768683 
0 0 0 
0 0 0 
0 0 0 
0 0 0 
0 0 0 
0 0 0 
0 0 0 
0 0 0 
0 0 0 
0 0 0 
0 0 0 
0 0 0 
0 0 0 
0 0 0 
0 0 0 
0 0 0 
0 0 0 
0 0 0 
0 0 0 
0 0 0 
0 0 0 
0 0 0 
0 0 0 
0 0 0 
0 0 0 
0 0 0 
0 0 0 
0 0 0 
0 0 0 
0 0 0 
0 0 0 
0 0 0 
0 0 0 
0 0 0 
0 0 0 
0 0 0 
0 0 0 
0 0 0 
0 0 0 
0 0 0 
0 0 0 
0 0 0 
0 0 0 
0 0 0 
0 0 0 
0.9288674 0.37032983 0.007825958 
0.9303281 0.36664313 0.007903059 
0.93215764 0.36196738 0.0078631 
0 0 0 
0 0 0 
0 0 0 
0 0 0 
0 0 0 
0 0 0 
0 0 0 
0 0 0 
0 0 0 
0 0 0 
0 0 0 
0 0 0 
0.93698823 0.34928083 0.0074835634 
0.93514705 0.3541748 0.007758983 
0.9354346 0.35341713 0.0076556467 
0.93668324 0.3500907 0.007820811 
0.94084793 0.3387431 0.007640558 
0 0 0 
0 0 0 
0 0 0 
0 0 0 
0 0 0 
0 0 0 
0 0 0 
0 0 0 
0 0 0 
0 0 0 
0.94574976 0.32482153 0.0069578476 
0.94124293 0.33764923 0.0074022743 
0.93916273 0.34339306 0.007387794 
0.9378928 0.34683895 0.007735702 
0.93841547 0.3454275 0.007513122 
0.9399093 0.34133893 0.0076358286 
0 0 0 
0 0 0 
0 0 0 
0 0 0 
0 0 0 
0 0 0 
0 0 0 
0 0 0 
0 0 0 
0 0 0 
0.94794756 0.3183497 0.00698961 
0.9439378 0.33004585 0.0071514444 
0.9409304 0.33851567 0.0075504496 
0.9395423 0.3423538 0.007359313 
0.9388764 0.34416983 0.0076377275 
0.940534 0.33962038 0.007343383 
0.94707185 0.32094666 0.006945498 
0 0 0 
0 0 0 
0 0 0 
0 0 0 
0 0 0 
0 0 0 
0 0 0 
0 0 0 
0 0 0 
0.95041007 0.31092232 0.006924617 
0.9456891 0.32499033 0.007305179 
0.9422392 0.33486134 0.007297246 
0.9392114 0.3432546 0.0076320088 
0.9382038 0.3460034 0.00744435 
0.937069 0.34906322 0.0075264806 
0 0 0 
0 0 0 
0 0 0 
0 0 0 
0 0 0 
0 0 0 
0 0 0 
0 0 0 
0 0 0 
0 0 0 
0 0 0 
0.94615376 0.32363483 0.0073224423 
0.94247156 0.33420208 0.007510292 
0.9373992 0.34817523 0.007542582 
0.9360262 0.3518482 0.0076020737 
0.93390936 0.35743266 0.007427517 
0 0 0 
0 0 0 
0 0 0 
0 0 0 
0 0 0 
0 0 0 
0 0 0 
0 0 0 
0 0 0 
0 0 0 
0 0 0 
0 0 0 
0 0 0 
0.92956036 0.36858737 0.0078007793 
0 0 0 
0 0 0 
0 0 0 
0 0 0 
0 0 0 
0 0 0 
0 0 0 
0 0 0 
0 0 0 
0 0 0 
0 0 0 
0 0 0 
0 0 0 
0 0 0 
0 0 0 
0 0 0 
0 0 0 
0 0 0 
0 0 0 
0 0 0 
0 0 0 
0 0 0 
0 0 0 
0 0 0 
0 0 0 
0 0 0 
0 0 0 
0 0 0 
0 0 0 
0 0 0 
0 0 0 
0 0 0 
0 0 0 
0 0 0 
0 0 0 
0 0 0 
0 0 0 
0 0 0 
0 0 0 
0 0 0 
0 0 0 
0 0 0 
0 0 0 
0 0 0 
0 0 0 
0 0 0 
0 0 0 
0 0 0 
0 0 0 
0 0 0 
0 0 0 
0 0 0 
0 0 0 
0 0 0 
0 0 0 
0 0 0 
0 0 0 
0 0 0 
0 0 0 
0 0 0 
0.9363181 0.35113284 0.0037669183 
0.93850416 0.34524587 0.003917008 
0.9410914 0.33813083 0.003807918 
0.94378847 0.33052754 0.0038761739 
0 0 0 
0 0 0 
0 0 0 
0 0 0 
0 0 0 
0 0 0 
0 0 0 
0 0 0 
0 0 0 
0 0 0 
0 0 0 
0.942398 0.33447373 0.0036537747 
0.9410159 0.33833972 0.0039160172 
0.9415104 0.33696416 0.0036596782 
0.94263434 0.33380282 0.004018951 
0.9448437 0.32750103 0.00369592 
0.94873804 0.3160411 0.003768556 
0 0 0 
0 0 0 
0 0 0 
0 0 0 
0 0 0 
0 0 0 
0 0 0 
0 0 0 
0 0 0 
0 0 0 
0.9456543 0.3251519 0.0037833387 
0.94398576 0.3299663 0.0036139812 
0.94326717 0.33200982 0.004067425 
0.94303983 0.33266053 0.0035788983 
0.94400406 0.3299099 0.0039811363 
0.946388 0.32301113 0.0036878749 
0 0 0 
0 0 0 
0 0 0 
0 0 0 
0 0 0 
0 0 0 
0 0 0 
0 0 0 
0 0 0 
0 0 0 
0.9489333 0.31545565 0.0036700356 
0.94596404 0.32424754 0.003968674 
0.943922 0.33014935 0.0035733418 
0.94288224 0.3331015 0.0040722555 
0.9424781 0.33424842 0.0036270027 
0.94346917 0.33143863 0.0038026287 
0 0 0 
0 0 0 
0 0 0 
0 0 0 
0 0 0 
0 0 0 
0 0 0 
0 0 0 
0 0 0 
0 0 0 
0.9516064 0.30729672 0.003751503 
0.94723827 0.3205092 0.003683562 
0.9439922 0.3299436 0.0040143193 
0.9415807 0.33676776 0.003663478 
0.93992066 0.34137058 0.0039287433 
0.9404565 0.3398942 0.0036729455 
0 0 0 
0 0 0 
0 0 0 
0 0 0 
0 0 0 
0 0 0 
0 0 0 
0 0 0 
0 0 0 
0 0 0 
0 0 0 
0.94645464 0.32281363 0.00386657 
0.9428136 0.33329895 0.0038029568 
0.93893135 0.34408224 0.0039202212 
0.935719 0.3527259 0.0037763992 
0 0 0 
0 0 0 
0 0 0 
0 0 0 
0 0 0 
0 0 0 
0 0 0 
0 0 0 
0 0 0 
0 0 0 
0 0 0 
0 0 0 
0 0 0 
0 0 0 
0 0 0 
0 0 0 
0 0 0 
0 0 0 
0 0 0 
0 0 0 
0 0 0 
0 0 0 
0 0 0 
0 0 0 
0 0 0 
0 0 0 
0 0 0 
0 0 0 
0 0 0 
0 0 0 
0 0 0 
0 0 0 
0 0 0 
0 0 0 
0 0 0 
0 0 0 
0 0 0 
0 0 0 
0 0 0 
0 0 0 
# End: Data Text
# End: Segment
