# OOMMF: rectangular mesh v1.0
# Segment count: 1
# Begin: Segment
# Begin: Header
# Desc: Time (s) :  6.604321465861924e-09
# Title: m
# meshtype: rectangular
# meshunit: m
# xbase: 2.5e-09
# ybase: 2.5e-09
# zbase: 2.25e-08
# xstepsize: 5e-09
# ystepsize: 5e-09
# zstepsize: 4.5e-08
# xmin: 0
# ymin: 0
# zmin: 0
# xmax: 8e-08
# ymax: 1.6e-07
# zmax: 4.5e-08
# xnodes: 16
# ynodes: 32
# znodes: 1
# ValueRangeMinMag: 1e-08
# ValueRangeMaxMag: 1
# valueunit: 
# valuemultiplier: 1
# End: Header
# Begin: Data Text
0 0 0 
0 0 0 
0 0 0 
0 0 0 
0 0 0 
0 0 0 
0 0 0 
0 0 0 
0 0 0 
0 0 0 
0 0 0 
0 0 0 
0 0 0 
0 0 0 
0 0 0 
0 0 0 
0 0 0 
0 0 0 
0 0 0 
0 0 0 
0 0 0 
0 0 0 
0 0 0 
0 0 0 
0 0 0 
0 0 0 
0 0 0 
0 0 0 
0 0 0 
0 0 0 
0 0 0 
0 0 0 
0 0 0 
0 0 0 
0 0 0 
0 0 0 
0 0 0 
0 0 0 
0 0 0 
0 0 0 
0 0 0 
0 0 0 
0 0 0 
0 0 0 
0 0 0 
0 0 0 
0 0 0 
0 0 0 
0 0 0 
0 0 0 
0 0 0 
0 0 0 
0 0 0 
0 0 0 
0 0 0 
0 0 0 
0 0 0 
0 0 0 
0 0 0 
0 0 0 
0 0 0 
0 0 0 
0 0 0 
0 0 0 
0 0 0 
0 0 0 
0 0 0 
0 0 0 
0 0 0 
0 0 0 
0 0 0 
0 0 0 
0 0 0 
0 0 0 
0 0 0 
0 0 0 
0 0 0 
0 0 0 
0 0 0 
0 0 0 
0 0 0 
0 0 0 
0 0 0 
0 0 0 
0 0 0 
0 0 0 
0 0 0 
0 0 0 
0 0 0 
0 0 0 
0 0 0 
0 0 0 
0 0 0 
0 0 0 
0 0 0 
0 0 0 
0 0 0 
0 0 0 
0 0 0 
0 0 0 
0 0 0 
0 0 0 
0.93576586 0.3525427 0.007483928 
0.9381432 0.34616512 0.007559251 
0.9409197 0.33854565 0.0075511467 
0 0 0 
0 0 0 
0 0 0 
0 0 0 
0 0 0 
0 0 0 
0 0 0 
0 0 0 
0 0 0 
0 0 0 
0 0 0 
0 0 0 
0.9390597 0.34367698 0.007291768 
0.9393815 0.34279352 0.0074266642 
0.9404897 0.3397397 0.0074919634 
0.94266707 0.33364993 0.007523984 
0.9462057 0.32347897 0.007504923 
0 0 0 
0 0 0 
0 0 0 
0 0 0 
0 0 0 
0 0 0 
0 0 0 
0 0 0 
0 0 0 
0 0 0 
0.9454007 0.32583812 0.0068541514 
0.94168293 0.3364248 0.00719766 
0.94077986 0.33893812 0.007356877 
0.9410026 0.33831716 0.0074625867 
0.9419853 0.33556998 0.007509768 
0.94349897 0.33128923 0.0075598424 
0 0 0 
0 0 0 
0 0 0 
0 0 0 
0 0 0 
0 0 0 
0 0 0 
0 0 0 
0 0 0 
0 0 0 
0.94669574 0.32205567 0.006876412 
0.9423265 0.33461756 0.0072137387 
0.94080114 0.33887872 0.0073800194 
0.940447 0.3398586 0.0074653733 
0.94069195 0.33917794 0.007545721 
0.9407917 0.3389004 0.0075846035 
0 0 0 
0 0 0 
0 0 0 
0 0 0 
0 0 0 
0 0 0 
0 0 0 
0 0 0 
0 0 0 
0 0 0 
0 0 0 
0.9418663 0.33590692 0.007390306 
0.94022924 0.34046096 0.0074491324 
0.9394332 0.3426492 0.007538772 
0.9393057 0.34299743 0.007586113 
0.9395634 0.3422911 0.0075775073 
0 0 0 
0 0 0 
0 0 0 
0 0 0 
0 0 0 
0 0 0 
0 0 0 
0 0 0 
0 0 0 
0 0 0 
0 0 0 
0.9426263 0.3337675 0.0074076424 
0.94019115 0.34056428 0.007518557 
0.9383178 0.34569073 0.0075972327 
0.9364095 0.35082614 0.0076484205 
0 0 0 
0 0 0 
0 0 0 
0 0 0 
0 0 0 
0 0 0 
0 0 0 
0 0 0 
0 0 0 
0 0 0 
0 0 0 
0 0 0 
0 0 0 
0 0 0 
0 0 0 
0 0 0 
0 0 0 
0 0 0 
0 0 0 
0 0 0 
0 0 0 
0 0 0 
0 0 0 
0 0 0 
0 0 0 
0 0 0 
0 0 0 
0 0 0 
0 0 0 
0 0 0 
0 0 0 
0 0 0 
0 0 0 
0 0 0 
0 0 0 
0 0 0 
0 0 0 
0 0 0 
0 0 0 
0 0 0 
0 0 0 
0 0 0 
0 0 0 
0 0 0 
0 0 0 
0.92875046 0.37062183 0.007871225 
0.9303064 0.3667011 0.007775379 
0.9320447 0.36225733 0.007902019 
0 0 0 
0 0 0 
0 0 0 
0 0 0 
0 0 0 
0 0 0 
0 0 0 
0 0 0 
0 0 0 
0 0 0 
0 0 0 
0 0 0 
0.93686783 0.349602 0.007562365 
0.9352198 0.35398912 0.0074621267 
0.9351914 0.3540535 0.007956424 
0.9367389 0.34994766 0.0075525297 
0.94074214 0.3390356 0.007690514 
0 0 0 
0 0 0 
0 0 0 
0 0 0 
0 0 0 
0 0 0 
0 0 0 
0 0 0 
0 0 0 
0 0 0 
0.94565696 0.32509062 0.0070100287 
0.94131595 0.33745208 0.0071092155 
0.9388671 0.34419128 0.007811074 
0.9380774 0.34635064 0.007223064 
0.93814963 0.34614047 0.007874014 
0.93991864 0.34131706 0.007463776 
0 0 0 
0 0 0 
0 0 0 
0 0 0 
0 0 0 
0 0 0 
0 0 0 
0 0 0 
0 0 0 
0 0 0 
0.94793856 0.31837934 0.0068676765 
0.9437158 0.3306735 0.0074555334 
0.9411121 0.33802146 0.007039517 
0.93920285 0.3432726 0.0078719845 
0.9390275 0.34376684 0.0071932045 
0.94036084 0.34009522 0.007539567 
0.9470318 0.32106602 0.0068936325 
0 0 0 
0 0 0 
0 0 0 
0 0 0 
0 0 0 
0 0 0 
0 0 0 
0 0 0 
0 0 0 
0.95032305 0.3111876 0.0069699567 
0.94574565 0.32483163 0.007041561 
0.94198334 0.33557215 0.0076593175 
0.9393623 0.34285107 0.0071874936 
0.9379699 0.34663013 0.0077497857 
0.9370731 0.3490555 0.007373924 
0 0 0 
0 0 0 
0 0 0 
0 0 0 
0 0 0 
0 0 0 
0 0 0 
0 0 0 
0 0 0 
0 0 0 
0 0 0 
0.9460549 0.3239225 0.007375592 
0.9424816 0.33417776 0.0073390882 
0.937218 0.34865832 0.0077397944 
0.93602955 0.3518426 0.0074494905 
0.9338168 0.35767397 0.007458237 
0 0 0 
0 0 0 
0 0 0 
0 0 0 
0 0 0 
0 0 0 
0 0 0 
0 0 0 
0 0 0 
0 0 0 
0 0 0 
0 0 0 
0 0 0 
0.9295023 0.3687352 0.0077457554 
0 0 0 
0 0 0 
0 0 0 
0 0 0 
0 0 0 
0 0 0 
0 0 0 
0 0 0 
0 0 0 
0 0 0 
0 0 0 
0 0 0 
0 0 0 
0 0 0 
0 0 0 
0 0 0 
0 0 0 
0 0 0 
0 0 0 
0 0 0 
0 0 0 
0 0 0 
0 0 0 
0 0 0 
0 0 0 
0 0 0 
0 0 0 
0 0 0 
0 0 0 
0 0 0 
0 0 0 
0 0 0 
0 0 0 
0 0 0 
0 0 0 
0 0 0 
0 0 0 
0 0 0 
0 0 0 
0 0 0 
0 0 0 
0 0 0 
0 0 0 
0 0 0 
0 0 0 
0 0 0 
0 0 0 
0 0 0 
0 0 0 
0 0 0 
0 0 0 
0 0 0 
0 0 0 
0 0 0 
0 0 0 
0 0 0 
0 0 0 
0 0 0 
0 0 0 
0 0 0 
0.9362556 0.35129976 0.0037401149 
0.93840116 0.3455255 0.0039215153 
0.9410394 0.33827636 0.0037702455 
0.9436988 0.33078328 0.0038713969 
0 0 0 
0 0 0 
0 0 0 
0 0 0 
0 0 0 
0 0 0 
0 0 0 
0 0 0 
0 0 0 
0 0 0 
0 0 0 
0.94234246 0.33463046 0.0036269538 
0.9408928 0.3386815 0.0039425367 
0.94150823 0.33697093 0.0035834557 
0.94248897 0.33421275 0.0040632365 
0.94481915 0.32757208 0.0036381783 
0.9486562 0.31628668 0.0037644475 
0 0 0 
0 0 0 
0 0 0 
0 0 0 
0 0 0 
0 0 0 
0 0 0 
0 0 0 
0 0 0 
0 0 0 
0.9455618 0.32542053 0.0037895357 
0.94398546 0.3299681 0.0035375832 
0.9430961 0.33249462 0.0041359076 
0.94306606 0.33258724 0.0034792048 
0.9438621 0.3303154 0.0040267846 
0.9463431 0.32314286 0.0036524646 
0 0 0 
0 0 0 
0 0 0 
0 0 0 
0 0 0 
0 0 0 
0 0 0 
0 0 0 
0 0 0 
0 0 0 
0.9488896 0.31558737 0.0036336645 
0.94582486 0.3246528 0.004013013 
0.94394875 0.33007398 0.0034728674 
0.9427111 0.33358458 0.004141359 
0.9424781 0.3342492 0.0035510357 
0.94337595 0.33170393 0.003809761 
0 0 0 
0 0 0 
0 0 0 
0 0 0 
0 0 0 
0 0 0 
0 0 0 
0 0 0 
0 0 0 
0 0 0 
0.95152754 0.30754086 0.00374737 
0.94721556 0.3205769 0.0036252285 
0.94384974 0.3303503 0.004059089 
0.94158006 0.3367701 0.0035878017 
0.9397981 0.34170738 0.00395678 
0.9404015 0.34004685 0.0036469821 
0 0 0 
0 0 0 
0 0 0 
0 0 0 
0 0 0 
0 0 0 
0 0 0 
0 0 0 
0 0 0 
0 0 0 
0 0 0 
0.9463688 0.3230655 0.0038614739 
0.942764 0.3334394 0.003765501 
0.93883085 0.34435636 0.0039261077 
0.93565875 0.35288626 0.0037502323 
0 0 0 
0 0 0 
0 0 0 
0 0 0 
0 0 0 
0 0 0 
0 0 0 
0 0 0 
0 0 0 
0 0 0 
0 0 0 
0 0 0 
0 0 0 
0 0 0 
0 0 0 
0 0 0 
0 0 0 
0 0 0 
0 0 0 
0 0 0 
0 0 0 
0 0 0 
0 0 0 
0 0 0 
0 0 0 
0 0 0 
0 0 0 
0 0 0 
0 0 0 
0 0 0 
0 0 0 
0 0 0 
0 0 0 
0 0 0 
0 0 0 
0 0 0 
0 0 0 
0 0 0 
0 0 0 
0 0 0 
# End: Data Text
# End: Segment
