# OOMMF: rectangular mesh v1.0
# Segment count: 1
# Begin: Segment
# Begin: Header
# Desc: Time (s) :  1.2956973487555856e-08
# Title: m
# meshtype: rectangular
# meshunit: m
# xbase: 2.5e-09
# ybase: 2.5e-09
# zbase: 2.25e-08
# xstepsize: 5e-09
# ystepsize: 5e-09
# zstepsize: 4.5e-08
# xmin: 0
# ymin: 0
# zmin: 0
# xmax: 8e-08
# ymax: 1.6e-07
# zmax: 4.5e-08
# xnodes: 16
# ynodes: 32
# znodes: 1
# ValueRangeMinMag: 1e-08
# ValueRangeMaxMag: 1
# valueunit: 
# valuemultiplier: 1
# End: Header
# Begin: Data Text
0 0 0 
0 0 0 
0 0 0 
0 0 0 
0 0 0 
0 0 0 
0 0 0 
0 0 0 
0 0 0 
0 0 0 
0 0 0 
0 0 0 
0 0 0 
0 0 0 
0 0 0 
0 0 0 
0 0 0 
0 0 0 
0 0 0 
0 0 0 
0 0 0 
0 0 0 
0 0 0 
0 0 0 
0 0 0 
0 0 0 
0 0 0 
0 0 0 
0 0 0 
0 0 0 
0 0 0 
0 0 0 
0 0 0 
0 0 0 
0 0 0 
0 0 0 
0 0 0 
0 0 0 
0 0 0 
0 0 0 
0 0 0 
0 0 0 
0 0 0 
0 0 0 
0 0 0 
0 0 0 
0 0 0 
0 0 0 
0 0 0 
0 0 0 
0 0 0 
0 0 0 
0 0 0 
0 0 0 
0 0 0 
0 0 0 
0 0 0 
0 0 0 
0 0 0 
0 0 0 
0 0 0 
0 0 0 
0 0 0 
0 0 0 
0 0 0 
0 0 0 
0 0 0 
0 0 0 
0 0 0 
0 0 0 
0 0 0 
0 0 0 
0 0 0 
0 0 0 
0 0 0 
0 0 0 
0 0 0 
0 0 0 
0 0 0 
0 0 0 
0 0 0 
0 0 0 
0 0 0 
0 0 0 
0 0 0 
0 0 0 
0 0 0 
0 0 0 
0 0 0 
0 0 0 
0 0 0 
0 0 0 
0 0 0 
0 0 0 
0 0 0 
0 0 0 
0 0 0 
0 0 0 
0 0 0 
0 0 0 
0 0 0 
0 0 0 
0.94491184 0.32730213 -0.0038586808 
0.94729424 0.32034004 -0.0039896453 
0.95001066 0.3121907 -0.0040837983 
0 0 0 
0 0 0 
0 0 0 
0 0 0 
0 0 0 
0 0 0 
0 0 0 
0 0 0 
0 0 0 
0 0 0 
0 0 0 
0 0 0 
0.9474572 0.31986138 -0.0036930053 
0.94805205 0.31809214 -0.0038311519 
0.94930094 0.31434387 -0.0039745653 
0.95144993 0.30777648 -0.004101764 
0.9547757 0.29729763 -0.0041947 
0 0 0 
0 0 0 
0 0 0 
0 0 0 
0 0 0 
0 0 0 
0 0 0 
0 0 0 
0 0 0 
0 0 0 
0.95286596 0.3033716 -0.0034876443 
0.94982874 0.3127488 -0.0036793791 
0.9493004 0.3143471 -0.0038264098 
0.9497104 0.31310466 -0.0039597745 
0.9507652 0.30988535 -0.004080399 
0.9522479 0.30529734 -0.004172985 
0 0 0 
0 0 0 
0 0 0 
0 0 0 
0 0 0 
0 0 0 
0 0 0 
0 0 0 
0 0 0 
0 0 0 
0.95413667 0.29935062 -0.0035308998 
0.9505461 0.3105611 -0.0037477068 
0.94938076 0.31410393 -0.0038668183 
0.9492322 0.31455106 -0.0039671217 
0.9495614 0.31355485 -0.004056929 
0.94970125 0.31313023 -0.0041190013 
0 0 0 
0 0 0 
0 0 0 
0 0 0 
0 0 0 
0 0 0 
0 0 0 
0 0 0 
0 0 0 
0 0 0 
0 0 0 
0.9504687 0.31079563 -0.0039189486 
0.94902277 0.31518298 -0.0039505665 
0.9483746 0.31712714 -0.00399981 
0.94831216 0.31731325 -0.0040456667 
0.94846857 0.3168449 -0.004064452 
0 0 0 
0 0 0 
0 0 0 
0 0 0 
0 0 0 
0 0 0 
0 0 0 
0 0 0 
0 0 0 
0 0 0 
0 0 0 
0.9514253 0.3078539 -0.003991268 
0.9491658 0.31475073 -0.0040194155 
0.9474362 0.31991923 -0.0040322766 
0.94570136 0.3250116 -0.0040411404 
0 0 0 
0 0 0 
0 0 0 
0 0 0 
0 0 0 
0 0 0 
0 0 0 
0 0 0 
0 0 0 
0 0 0 
0 0 0 
0 0 0 
0 0 0 
0 0 0 
0 0 0 
0 0 0 
0 0 0 
0 0 0 
0 0 0 
0 0 0 
0 0 0 
0 0 0 
0 0 0 
0 0 0 
0 0 0 
0 0 0 
0 0 0 
0 0 0 
0 0 0 
0 0 0 
0 0 0 
0 0 0 
0 0 0 
0 0 0 
0 0 0 
0 0 0 
0 0 0 
0 0 0 
0 0 0 
0 0 0 
0 0 0 
0 0 0 
0 0 0 
0 0 0 
0 0 0 
0.9407897 0.33897623 0.0031480587 
0.9422697 0.33483845 0.0033120688 
0.94399446 0.3299462 0.0031515087 
0 0 0 
0 0 0 
0 0 0 
0 0 0 
0 0 0 
0 0 0 
0 0 0 
0 0 0 
0 0 0 
0 0 0 
0 0 0 
0 0 0 
0.947451 0.3198879 0.0029183289 
0.94616485 0.32366773 0.0033549748 
0.946413 0.32294658 0.0028433774 
0.94771737 0.31909317 0.0033622335 
0.95131606 0.30820215 0.0030184616 
0 0 0 
0 0 0 
0 0 0 
0 0 0 
0 0 0 
0 0 0 
0 0 0 
0 0 0 
0 0 0 
0 0 0 
0.9548789 0.29698342 0.0026457985 
0.95123833 0.30844095 0.0031386465 
0.94941497 0.31401384 0.0025915534 
0.9485522 0.31660149 0.003509002 
0.9488191 0.31580842 0.0027338553 
0.95023364 0.31152192 0.0032113236 
0 0 0 
0 0 0 
0 0 0 
0 0 0 
0 0 0 
0 0 0 
0 0 0 
0 0 0 
0 0 0 
0 0 0 
0.9569786 0.2901456 0.0027667594 
0.9535228 0.30131042 0.0025225626 
0.9511034 0.30885416 0.0033816046 
0.9496409 0.31333026 0.0025273738 
0.9491604 0.31477407 0.0034415778 
0.9503021 0.31131658 0.0028246064 
0.95573825 0.2942044 0.0028546746 
0 0 0 
0 0 0 
0 0 0 
0 0 0 
0 0 0 
0 0 0 
0 0 0 
0 0 0 
0 0 0 
0.9592434 0.28256944 0.0025788727 
0.9552754 0.29570243 0.0030134385 
0.9520737 0.30585805 0.0025639853 
0.9494863 0.31379 0.0034107896 
0.9482639 0.3174712 0.0027831527 
0.9471403 0.32080367 0.0032150156 
0 0 0 
0 0 0 
0 0 0 
0 0 0 
0 0 0 
0 0 0 
0 0 0 
0 0 0 
0 0 0 
0 0 0 
0 0 0 
0.95582116 0.29393587 0.0027595474 
0.95246905 0.30461988 0.0030741415 
0.9477742 0.31892937 0.0028769192 
0.94630814 0.3232501 0.0032367713 
0.9440704 0.32973012 0.0030581518 
0 0 0 
0 0 0 
0 0 0 
0 0 0 
0 0 0 
0 0 0 
0 0 0 
0 0 0 
0 0 0 
0 0 0 
0 0 0 
0 0 0 
0 0 0 
0.9411763 0.3379007 0.00322329 
0 0 0 
0 0 0 
0 0 0 
0 0 0 
0 0 0 
0 0 0 
0 0 0 
0 0 0 
0 0 0 
0 0 0 
0 0 0 
0 0 0 
0 0 0 
0 0 0 
0 0 0 
0 0 0 
0 0 0 
0 0 0 
0 0 0 
0 0 0 
0 0 0 
0 0 0 
0 0 0 
0 0 0 
0 0 0 
0 0 0 
0 0 0 
0 0 0 
0 0 0 
0 0 0 
0 0 0 
0 0 0 
0 0 0 
0 0 0 
0 0 0 
0 0 0 
0 0 0 
0 0 0 
0 0 0 
0 0 0 
0 0 0 
0 0 0 
0 0 0 
0 0 0 
0 0 0 
0 0 0 
0 0 0 
0 0 0 
0 0 0 
0 0 0 
0 0 0 
0 0 0 
0 0 0 
0 0 0 
0 0 0 
0 0 0 
0 0 0 
0 0 0 
0 0 0 
0 0 0 
0.9297857 0.36807302 0.004566667 
0.93185633 0.36279684 0.004712162 
0.9345566 0.35578427 0.0046444843 
0.9372198 0.34870765 0.00469112 
0 0 0 
0 0 0 
0 0 0 
0 0 0 
0 0 0 
0 0 0 
0 0 0 
0 0 0 
0 0 0 
0 0 0 
0 0 0 
0.9364169 0.3508615 0.0044232113 
0.934632 0.35558587 0.0046744035 
0.93529457 0.3538417 0.004505379 
0.93609035 0.35172737 0.0047867303 
0.9386538 0.34483117 0.004533315 
0.94270813 0.33358765 0.00455122 
0 0 0 
0 0 0 
0 0 0 
0 0 0 
0 0 0 
0 0 0 
0 0 0 
0 0 0 
0 0 0 
0 0 0 
0.939654 0.34209627 0.0045393845 
0.9379745 0.34667605 0.0044414573 
0.93677235 0.3499063 0.004803357 
0.93694764 0.3494419 0.0044352394 
0.937614 0.34764558 0.0047350926 
0.9404154 0.3399982 0.004486899 
0 0 0 
0 0 0 
0 0 0 
0 0 0 
0 0 0 
0 0 0 
0 0 0 
0 0 0 
0 0 0 
0 0 0 
0.9430911 0.33250463 0.0044590435 
0.93967146 0.34204602 0.004711594 
0.9378636 0.34697604 0.00442305 
0.936355 0.35102183 0.004803916 
0.9363796 0.3509606 0.0044532963 
0.93734634 0.34836924 0.0045584305 
0 0 0 
0 0 0 
0 0 0 
0 0 0 
0 0 0 
0 0 0 
0 0 0 
0 0 0 
0 0 0 
0 0 0 
0.94572145 0.32494724 0.004517196 
0.9411491 0.33796182 0.004501122 
0.9374883 0.3479844 0.004763647 
0.9353353 0.35373414 0.004493693 
0.9334501 0.35867697 0.0046757325 
0.93435746 0.35630965 0.004436161 
0 0 0 
0 0 0 
0 0 0 
0 0 0 
0 0 0 
0 0 0 
0 0 0 
0 0 0 
0 0 0 
0 0 0 
0 0 0 
0.93998736 0.34117752 0.004652166 
0.9363183 0.35112235 0.004611955 
0.9322529 0.36177692 0.0046923393 
0.92910767 0.36978137 0.004556544 
0 0 0 
0 0 0 
0 0 0 
0 0 0 
0 0 0 
0 0 0 
0 0 0 
0 0 0 
0 0 0 
0 0 0 
0 0 0 
0 0 0 
0 0 0 
0 0 0 
0 0 0 
0 0 0 
0 0 0 
0 0 0 
0 0 0 
0 0 0 
0 0 0 
0 0 0 
0 0 0 
0 0 0 
0 0 0 
0 0 0 
0 0 0 
0 0 0 
0 0 0 
0 0 0 
0 0 0 
0 0 0 
0 0 0 
0 0 0 
0 0 0 
0 0 0 
0 0 0 
0 0 0 
0 0 0 
0 0 0 
# End: Data Text
# End: Segment
